 Gaussian 09, Revision A.01,
 Gaussian 09:  EM64L-G09RevA.01  8-May-2009

 ------------------------------------------------
 # opt freq=noraman hf/6-31G(d) geom=connectivity
 ------------------------------------------------

 -------------------
 Title Card Required
 -------------------
 Symbolic Z-matrix:
 Charge =  0 Multiplicity = 1

 SCF Done:  E(RHF) =  -712.647799854     A.U. after   14 cycles
 SCF Done:  E(RHF) =  -712.664112112     A.U. after   15 cycles
 SCF Done:  E(RHF) =  -712.664547184     A.U. after   11 cycles
 SCF Done:  E(RHF) =  -712.664592389     A.U. after    9 cycles
 SCF Done:  E(RHF) =  -712.664593404     A.U. after    8 cycles
 Optimization completed.
    -- Stationary point found.
 Normal termination of Gaussian 09 at Sat Oct 26 20:10:25 2024.

 -----------------------------------------------------------------
 #N Geom=AllCheck Guess=TCheck SCRF=Check GenChk RHF/6-31G(d) Freq
 -----------------------------------------------------------------

 Title Card Required
 -------------------
 Redundant internal coordinates taken from checkpoint file:
 1-base2.chk
 Charge =  0 Multiplicity = 1

                         Standard orientation:
 ---------------------------------------------------------------------
 Center     Atomic      Atomic             Coordinates (Angstroms)
 Number     Number       Type             X           Y           Z
 ---------------------------------------------------------------------
      1          6           0        0.000000    0.784871    0.000000
      2          6           0       -0.936127   -0.137566    0.000000
      3          1           0       -1.947243    0.229150    0.000000
      4          6           0       -0.725470   -1.585952    0.000000
      5          1           0        0.290851   -1.936529    0.000000
      6          6           0       -1.719594   -2.457661    0.000000
      7          1           0       -2.750365   -2.148262    0.000000
      8          1           0       -1.534061   -3.515785    0.000000
      9          9           0       -0.296765    2.068820    0.000000
     10         17           0        1.699932    0.537053    0.000000
 ---------------------------------------------------------------------

 SCF Done:  E(RHF) =  -712.664593404     A.U. after    1 cycles

 The electronic state is 1-A'.
 Alpha  occ. eigenvalues -- -104.84931 -26.33604 -11.38945 -11.25591 -11.25152
 Alpha  occ. eigenvalues --  -11.23791 -10.58373  -8.05319  -8.04963  -8.04957
 Alpha  occ. eigenvalues --   -1.65873  -1.17923  -1.09546  -1.01190  -0.85055
 Alpha  occ. eigenvalues --   -0.78616  -0.72574  -0.72106  -0.71915  -0.62517
 Alpha  occ. eigenvalues --   -0.60496  -0.56215  -0.52120  -0.52084  -0.48202
 Alpha  occ. eigenvalues --   -0.44391  -0.33084
 Alpha virt. eigenvalues --    0.11935   0.20351   0.24998   0.26289   0.26653
 Alpha virt. eigenvalues --    0.30810   0.33466   0.36065   0.48345   0.50963
 Alpha virt. eigenvalues --    0.53385   0.54801   0.60375   0.62241   0.67674

 Mulliken atomic charges:
              1
     1  C    0.302511
     2  C   -0.258439
     3  H    0.227863
     4  C   -0.143498
     5  H    0.216340
     6  C   -0.402879
     7  H    0.184497
     8  H    0.191596
     9  F   -0.339925
    10  Cl   0.021934
 Sum of Mulliken atomic charges =   0.00000

 Dipole moment (field-independent basis, Debye):
    X=             -1.0018    Y=             -1.4941    Z=              0.0000  Tot=              1.7989
 Quadrupole moment (field-independent basis, Debye-Ang):
   XX=            -38.0702   YY=            -41.2213   ZZ=            -43.6238
   XY=              0.4026   XZ=              0.0000   YZ=              0.0000

  Exact polarizability:  70.352  23.146  67.180   0.000   0.000  21.204
 Approx polarizability:  57.348  13.765  53.788   0.000   0.000  22.694

                     1                      2                      3
                    A"                     A'                     A"
 Frequencies --   115.0509               173.8007               262.9322
 Red. masses --     2.5335                 5.5932                 2.3879
 Frc consts  --     0.0198                 0.0995                 0.0973
 IR Inten    --     0.1610                 0.9908                 0.0074

                     4                      5                      6
                    A'                     A'                     A'
 Frequencies --   366.2110               469.1607               567.2552
 Red. masses --     4.3118                 6.7666                 7.4324
 Frc consts  --     0.3407                 0.8775                 1.4091
 IR Inten    --     0.6138                 3.6784                10.6857

                     7                      8                      9
                    A"                     A"                     A'
 Frequencies --   569.9742               739.3175               759.9559
 Red. masses --     5.6852                 1.4227                 4.8379
 Frc consts  --     1.0882                 0.4582                 1.6462
 IR Inten    --     0.1810                16.7293                56.0530

                    10                     11                     12
                    A"                     A'                     A"
 Frequencies --   991.5544              1048.4040              1080.1061
 Red. masses --     1.4479                 1.5271                 1.3403
 Frc consts  --     0.8387                 0.9889                 0.9213
 IR Inten    --    12.1939                21.5127                62.1941

                    13                     14                     15
                    A"                     A'                     A'
 Frequencies --  1137.0851              1273.3056              1312.0657
 Red. masses --     1.1269                 4.3721                 2.9778
 Frc consts  --     0.8585                 4.1764                 3.0204
 IR Inten    --    17.1007               111.0274               103.4378

                    16                     17                     18
                    A'                     A'                     A'
 Frequencies --  1406.1107              1452.9705              1592.7895
 Red. masses --     1.3974                 1.3311                 1.2453
 Frc consts  --     1.6279                 1.6556                 1.8614
 IR Inten    --    71.2318                 0.9616                22.0147

                    19                     20                     21
                    A'                     A'                     A'
 Frequencies --  1841.4534              1928.1298              3338.1468
 Red. masses --     4.4005                 6.9481                 1.0617
 Frc consts  --     8.7917                15.2192                 6.9708
 IR Inten    --    20.0782               139.3681                 9.7189

                    22                     23                     24
                    A'                     A'                     A'
 Frequencies --  3373.5872              3379.0314              3423.5856
 Red. masses --     1.0939                 1.0914                 1.1159
 Frc consts  --     7.3352                 7.3422                 7.7060
 IR Inten    --     0.8836                 5.3843                16.3556

 - Thermochemistry -
 -------------------
 Temperature   298.150 Kelvin.  Pressure   1.00000 Atm.
 Atom     1 has atomic number  6 and mass  12.00000

 Molecular mass:   105.99856 amu.
 Principal axes and moments of inertia in atomic units:
                           1         2         3
     Eigenvalues --   340.776071052.464401393.24047
           X            0.60531   0.79599   0.00000
           Y            0.79599  -0.60531   0.00000
           Z            0.00000   0.00000   1.00000
 This molecule is an asymmetric top.
 Rotational symmetry number  1.
 Rotational temperatures (Kelvin)      0.25417     0.08230     0.06217
 Rotational constants (GHZ):           5.29597     1.71478     1.29536
 Zero-point vibrational energy     195003.2 (Joules/Mol)
                                   46.60688 (Kcal/Mol)
 Warning -- explicit consideration of   7 degrees of freedom as
           vibrations may cause significant error
 Vibrational temperatures:    165.53   250.06   378.30   526.90   675.02
          (Kelvin)            816.15   820.06  1063.71  1093.41  1426.62
                             1508.42  1554.03  1636.01  1832.00  1887.77
                             2023.08  2090.50  2291.67  2649.44  2774.15
                             4802.84  4853.83  4861.67  4925.77

 Zero-point correction=                           0.074273 (Hartree/Particle)
 Thermal correction to Energy=                    0.080178
 Thermal correction to Enthalpy=                  0.081122
 Thermal correction to Gibbs Free Energy=         0.043794
 Sum of electronic and zero-point Energies=           -712.590321
 Sum of electronic and thermal Energies=              -712.584415
 Sum of electronic and thermal Enthalpies=            -712.583471
 Sum of electronic and thermal Free Energies=         -712.620799

                     E (Thermal)             CV                S
                      KCal/Mol        Cal/Mol-Kelvin    Cal/Mol-Kelvin
 Total                   50.313             19.896             78.564
 Electronic               0.000              0.000              0.000
 Translational            0.889              2.981             39.892
 Rotational               0.889              2.981             27.704
 Vibrational             48.535             13.934             10.968
 Vibration     1          0.608              1.937              3.182
 Vibration     2          0.627              1.875              2.394
 Vibration     3          0.670              1.741              1.642
 Vibration     4          0.739              1.542              1.096
 Vibration     5          0.826              1.318              0.740
 Vibration     6          0.923              1.102              0.510
 Vibration     7          0.926              1.096              0.504

 Optimization completed.
    -- Stationary point found.
 Normal termination of Gaussian 09 at Sat Oct 26 20:10:29 2024.
