 Gaussian 09, Revision A.01,
 Gaussian 09:  EM64L-G09RevA.01  8-May-2009

 -----------------------------------------------
 # opt freq=noraman hf/cc-pvtz geom=connectivity
 -----------------------------------------------

 -------------------
 Title Card Required
 -------------------
 Symbolic Z-matrix:
 Charge =  0 Multiplicity = 1

 SCF Done:  E(RHF) =  -712.781713183     A.U. after   13 cycles
 SCF Done:  E(RHF) =  -712.798941088     A.U. after   14 cycles
 SCF Done:  E(RHF) =  -712.799392613     A.U. after   11 cycles
 SCF Done:  E(RHF) =  -712.799430614     A.U. after    8 cycles
 SCF Done:  E(RHF) =  -712.799431436     A.U. after    8 cycles
 Optimization completed.
    -- Stationary point found.
 Normal termination of Gaussian 09 at Sat Oct 26 18:12:04 2024.

 ----------------------------------------------------------------
 #N Geom=AllCheck Guess=TCheck SCRF=Check GenChk RHF/CC-pVTZ Freq
 ----------------------------------------------------------------

 Title Card Required
 -------------------
 Redundant internal coordinates taken from checkpoint file:
 1-base5.chk
 Charge =  0 Multiplicity = 1

                         Standard orientation:
 ---------------------------------------------------------------------
 Center     Atomic      Atomic             Coordinates (Angstroms)
 Number     Number       Type             X           Y           Z
 ---------------------------------------------------------------------
      1          6           0        0.000000    0.786849    0.000000
      2          6           0       -0.939061   -0.127796    0.000000
      3          1           0       -1.947731    0.241213    0.000000
      4          6           0       -0.729756   -1.573066    0.000000
      5          1           0        0.284489   -1.923415    0.000000
      6          6           0       -1.721437   -2.442474    0.000000
      7          1           0       -2.749809   -2.130794    0.000000
      8          1           0       -1.533220   -3.498358    0.000000
      9          9           0       -0.281768    2.064987    0.000000
     10         17           0        1.695512    0.521494    0.000000
 ---------------------------------------------------------------------

 SCF Done:  E(RHF) =  -712.799431436     A.U. after    1 cycles

 The electronic state is 1-A'.
 Alpha  occ. eigenvalues -- -104.86301 -26.33651 -11.38746 -11.25174 -11.24918
 Alpha  occ. eigenvalues --  -11.23399 -10.58828  -8.05520  -8.05318  -8.05312
 Alpha  occ. eigenvalues --   -1.67001  -1.18029  -1.09808  -1.01509  -0.85754
 Alpha  occ. eigenvalues --   -0.79080  -0.73006  -0.72978  -0.72896  -0.62888
 Alpha  occ. eigenvalues --   -0.60776  -0.56430  -0.52459  -0.52234  -0.48386
 Alpha  occ. eigenvalues --   -0.44732  -0.33476
 Alpha virt. eigenvalues --    0.10896   0.15124   0.16663   0.19471   0.21302
 Alpha virt. eigenvalues --    0.21578   0.22788   0.27294   0.33094   0.35529
 Alpha virt. eigenvalues --    0.41173   0.41221   0.43088   0.45464   0.46618

 Mulliken atomic charges:
              1
     1  C    0.306738
     2  C   -0.216984
     3  H    0.185003
     4  C   -0.086923
     5  H    0.170617
     6  C   -0.338568
     7  H    0.139385
     8  H    0.147614
     9  F   -0.195429
    10  Cl  -0.111452
 Sum of Mulliken atomic charges =   0.00000

 Dipole moment (field-independent basis, Debye):
    X=             -0.8721    Y=             -1.3159    Z=              0.0000  Tot=              1.5787
 Quadrupole moment (field-independent basis, Debye-Ang):
   XX=            -38.2328   YY=            -41.6187   ZZ=            -43.9526
   XY=              0.3372   XZ=              0.0000   YZ=              0.0000

  Exact polarizability:  75.612  23.428  73.655   0.000   0.000  32.512
 Approx polarizability:  62.938  12.615  60.128   0.000   0.000  36.505

                     1                      2                      3
                    A"                     A'                     A"
 Frequencies --   121.2968               174.0368               261.8159
 Red. masses --     2.5686                 5.5779                 2.3601
 Frc consts  --     0.0223                 0.0995                 0.0953
 IR Inten    --     0.0395                 0.9777                 0.0542

                     4                      5                      6
                    A'                     A'                     A'
 Frequencies --   366.2065               470.2852               565.2908
 Red. masses --     4.2603                 6.8905                 7.3924
 Frc consts  --     0.3366                 0.8979                 1.3918
 IR Inten    --     0.7790                 3.4224                11.2759

                     7                      8                      9
                    A"                     A"                     A'
 Frequencies --   580.0866               741.3119               751.3422
 Red. masses --     5.3858                 1.4080                 4.8051
 Frc consts  --     1.0678                 0.4559                 1.5982
 IR Inten    --     0.0373                17.6056                54.4334

                    10                     11                     12
                    A"                     A'                     A"
 Frequencies --   994.1422              1040.2277              1074.0526
 Red. masses --     1.4696                 1.5240                 1.3196
 Frc consts  --     0.8558                 0.9716                 0.8969
 IR Inten    --     8.8765                21.2950                67.6260

                    13                     14                     15
                    A"                     A'                     A'
 Frequencies --  1131.1420              1262.0333              1299.4456
 Red. masses --     1.1508                 4.4515                 2.9843
 Frc consts  --     0.8676                 4.1773                 2.9690
 IR Inten    --    13.4346               116.4530               103.8672

                    16                     17                     18
                    A'                     A'                     A'
 Frequencies --  1391.4245              1436.6953              1573.2218
 Red. masses --     1.3914                 1.3384                 1.2473
 Frc consts  --     1.5872                 1.6277                 1.8189
 IR Inten    --    61.5362                 0.9022                26.7169

                    19                     20                     21
                    A'                     A'                     A'
 Frequencies --  1811.0439              1898.1406              3285.3927
 Red. masses --     4.3665                 6.9421                 1.0615
 Frc consts  --     8.4381                14.7366                 6.7508
 IR Inten    --    13.4929               170.5967                 6.8064

                    22                     23                     24
                    A'                     A'                     A'
 Frequencies --  3325.6598              3333.4778              3372.1445
 Red. masses --     1.0925                 1.0925                 1.1150
 Frc consts  --     7.1194                 7.1528                 7.4701
 IR Inten    --     2.4996                 2.6187                12.6363

 - Thermochemistry -
 -------------------
 Temperature   298.150 Kelvin.  Pressure   1.00000 Atm.
 Atom     1 has atomic number  6 and mass  12.00000

 Molecular mass:   105.99856 amu.
 Principal axes and moments of inertia in atomic units:
                           1         2         3
     Eigenvalues --   339.438361043.218221382.65658
           X            0.60825   0.79374   0.00000
           Y            0.79374  -0.60825   0.00000
           Z            0.00000   0.00000   1.00000
 This molecule is an asymmetric top.
 Rotational symmetry number  1.
 Rotational temperatures (Kelvin)      0.25517     0.08303     0.06264
 Rotational constants (GHZ):           5.31685     1.72997     1.30527
 Zero-point vibrational energy     192957.2 (Joules/Mol)
                                   46.11787 (Kcal/Mol)
 Warning -- explicit consideration of   7 degrees of freedom as
           vibrations may cause significant error
 Vibrational temperatures:    174.52   250.40   376.69   526.89   676.63
          (Kelvin)            813.33   834.61  1066.58  1081.01  1430.35
                             1496.65  1545.32  1627.46  1815.78  1869.61
                             2001.95  2067.08  2263.51  2605.69  2731.00
                             4726.94  4784.88  4796.13  4851.76

 Zero-point correction=                           0.073493 (Hartree/Particle)
 Thermal correction to Energy=                    0.079389
 Thermal correction to Enthalpy=                  0.080334
 Thermal correction to Gibbs Free Energy=         0.043062
 Sum of electronic and zero-point Energies=           -712.725938
 Sum of electronic and thermal Energies=              -712.720042
 Sum of electronic and thermal Enthalpies=            -712.719098
 Sum of electronic and thermal Free Energies=         -712.756370

                     E (Thermal)             CV                S
                      KCal/Mol        Cal/Mol-Kelvin    Cal/Mol-Kelvin
 Total                   49.818             19.930             78.446
 Electronic               0.000              0.000              0.000
 Translational            0.889              2.981             39.892
 Rotational               0.889              2.981             27.684
 Vibrational             48.040             13.968             10.870
 Vibration     1          0.609              1.931              3.080
 Vibration     2          0.627              1.874              2.391
 Vibration     3          0.669              1.743              1.650
 Vibration     4          0.739              1.542              1.096
 Vibration     5          0.827              1.316              0.737
 Vibration     6          0.921              1.106              0.513
 Vibration     7          0.937              1.074              0.485

 Optimization completed.
    -- Stationary point found.
 Normal termination of Gaussian 09 at Sat Oct 26 18:12:51 2024.
