 Gaussian 09, Revision A.01,
 Gaussian 09:  EM64L-G09RevA.01  8-May-2009

 -----------------------------------------------
 # opt freq=noraman hf/cc-pvdz geom=connectivity
 -----------------------------------------------

 -------------------
 Title Card Required
 -------------------
 Symbolic Z-matrix:
 Charge =  0 Multiplicity = 1

 SCF Done:  E(RHF) =  -712.689578212     A.U. after   14 cycles
 SCF Done:  E(RHF) =  -712.705123314     A.U. after   15 cycles
 SCF Done:  E(RHF) =  -712.705521279     A.U. after   11 cycles
 SCF Done:  E(RHF) =  -712.705557692     A.U. after    9 cycles
 SCF Done:  E(RHF) =  -712.705558574     A.U. after    8 cycles
 Optimization completed.
    -- Stationary point found.
 Normal termination of Gaussian 09 at Sat Oct 26 20:10:30 2024.

 ----------------------------------------------------------------
 #N Geom=AllCheck Guess=TCheck SCRF=Check GenChk RHF/CC-pVDZ Freq
 ----------------------------------------------------------------

 Title Card Required
 -------------------
 Redundant internal coordinates taken from checkpoint file:
 1-base4.chk
 Charge =  0 Multiplicity = 1

                         Standard orientation:
 ---------------------------------------------------------------------
 Center     Atomic      Atomic             Coordinates (Angstroms)
 Number     Number       Type             X           Y           Z
 ---------------------------------------------------------------------
      1          6           0        0.000000    0.790564    0.000000
      2          6           0       -0.941701   -0.130127    0.000000
      3          1           0       -1.957271    0.245006    0.000000
      4          6           0       -0.731990   -1.579262    0.000000
      5          1           0        0.290804   -1.932544    0.000000
      6          6           0       -1.729644   -2.452568    0.000000
      7          1           0       -2.766568   -2.137418    0.000000
      8          1           0       -1.539888   -3.517487    0.000000
      9          9           0       -0.280821    2.076080    0.000000
     10         17           0        1.701195    0.522711    0.000000
 ---------------------------------------------------------------------

 SCF Done:  E(RHF) =  -712.705558574     A.U. after    1 cycles

 The electronic state is 1-A'.
 Alpha  occ. eigenvalues -- -104.85817 -26.33864 -11.39237 -11.26132 -11.25815
 Alpha  occ. eigenvalues --  -11.24641 -10.58574  -8.05341  -8.04979  -8.04969
 Alpha  occ. eigenvalues --   -1.66859  -1.18040  -1.09742  -1.01423  -0.85482
 Alpha  occ. eigenvalues --   -0.78781  -0.72621  -0.72465  -0.72449  -0.62555
 Alpha  occ. eigenvalues --   -0.60490  -0.56167  -0.52254  -0.52036  -0.48272
 Alpha  occ. eigenvalues --   -0.44586  -0.33334
 Alpha virt. eigenvalues --    0.11253   0.18669   0.20593   0.22948   0.23421
 Alpha virt. eigenvalues --    0.25623   0.27548   0.32501   0.43955   0.47379
 Alpha virt. eigenvalues --    0.49294   0.62485   0.63087   0.64238   0.67285

 Mulliken atomic charges:
              1
     1  C    0.239217
     2  C   -0.022212
     3  H    0.052765
     4  C   -0.089504
     5  H    0.042115
     6  C   -0.005123
     7  H    0.043503
     8  H    0.053372
     9  F   -0.235449
    10  Cl  -0.078684
 Sum of Mulliken atomic charges =   0.00000

 Dipole moment (field-independent basis, Debye):
    X=             -0.9298    Y=             -1.4359    Z=              0.0000  Tot=              1.7107
 Quadrupole moment (field-independent basis, Debye-Ang):
   XX=            -38.2994   YY=            -41.6147   ZZ=            -43.9238
   XY=              0.4357   XZ=              0.0000   YZ=              0.0000

  Exact polarizability:  72.121  23.064  68.756   0.000   0.000  22.967
 Approx polarizability:  59.341  13.226  55.725   0.000   0.000  25.662

                     1                      2                      3
                    A"                     A'                     A"
 Frequencies --   121.6164               173.4186               260.2856
 Red. masses --     2.5619                 5.5588                 2.3589
 Frc consts  --     0.0223                 0.0985                 0.0942
 IR Inten    --     0.0838                 0.9927                 0.0157

                     4                      5                      6
                    A'                     A'                     A'
 Frequencies --   364.1262               465.7249               562.5741
 Red. masses --     4.2831                 6.7846                 7.3683
 Frc consts  --     0.3346                 0.8670                 1.3740
 IR Inten    --     0.6232                 3.6251                11.9945

                     7                      8                      9
                    A"                     A"                     A'
 Frequencies --   575.1116               734.0049               748.8657
 Red. masses --     5.5371                 1.4226                 4.8376
 Frc consts  --     1.0790                 0.4516                 1.5984
 IR Inten    --     0.0460                16.2256                60.5181

                    10                     11                     12
                    A"                     A'                     A"
 Frequencies --   983.5030              1034.1999              1058.6574
 Red. masses --     1.4584                 1.4889                 1.3438
 Frc consts  --     0.8311                 0.9382                 0.8874
 IR Inten    --    11.1524                21.1396                53.3794

                    13                     14                     15
                    A"                     A'                     A'
 Frequencies --  1120.0089              1258.7982              1291.9843
 Red. masses --     1.1261                 4.6702                 2.6791
 Frc consts  --     0.8323                 4.3602                 2.6349
 IR Inten    --    17.6001               133.3424                94.4815

                    16                     17                     18
                    A'                     A'                     A'
 Frequencies --  1375.3148              1426.3141              1555.7999
 Red. masses --     1.4267                 1.3353                 1.2374
 Frc consts  --     1.5900                 1.6005                 1.7647
 IR Inten    --    71.4101                 1.2955                27.1787

                    19                     20                     21
                    A'                     A'                     A'
 Frequencies --  1826.3195              1921.1864              3305.9448
 Red. masses --     4.7851                 7.5774                 1.0623
 Frc consts  --     9.4036                16.4781                 6.8402
 IR Inten    --    15.4057               164.7895                 5.7555

                    22                     23                     24
                    A'                     A'                     A'
 Frequencies --  3351.5505              3357.5703              3402.0563
 Red. masses --     1.0940                 1.0920                 1.1160
 Frc consts  --     7.2404                 7.2532                 7.6101
 IR Inten    --     1.5855                 4.5267                11.1394

 - Thermochemistry -
 -------------------
 Temperature   298.150 Kelvin.  Pressure   1.00000 Atm.
 Atom     1 has atomic number  6 and mass  12.00000

 Molecular mass:   105.99856 amu.
 Principal axes and moments of inertia in atomic units:
                           1         2         3
     Eigenvalues --   342.135631052.195121394.33074
           X            0.60762   0.79423   0.00000
           Y            0.79423  -0.60762   0.00000
           Z            0.00000   0.00000   1.00000
 This molecule is an asymmetric top.
 Rotational symmetry number  1.
 Rotational temperatures (Kelvin)      0.25316     0.08232     0.06212
 Rotational constants (GHZ):           5.27493     1.71522     1.29434
 Zero-point vibrational energy     193047.0 (Joules/Mol)
                                   46.13934 (Kcal/Mol)
 Warning -- explicit consideration of   7 degrees of freedom as
           vibrations may cause significant error
 Vibrational temperatures:    174.98   249.51   374.49   523.90   670.07
          (Kelvin)            809.42   827.46  1056.07  1077.45  1415.04
                             1487.98  1523.17  1611.44  1811.13  1858.87
                             1978.77  2052.15  2238.45  2627.66  2764.16
                             4756.51  4822.13  4830.79  4894.79

 Zero-point correction=                           0.073528 (Hartree/Particle)
 Thermal correction to Energy=                    0.079447
 Thermal correction to Enthalpy=                  0.080391
 Thermal correction to Gibbs Free Energy=         0.043071
 Sum of electronic and zero-point Energies=           -712.632031
 Sum of electronic and thermal Energies=              -712.626112
 Sum of electronic and thermal Enthalpies=            -712.625168
 Sum of electronic and thermal Free Energies=         -712.662487

                     E (Thermal)             CV                S
                      KCal/Mol        Cal/Mol-Kelvin    Cal/Mol-Kelvin
 Total                   49.853             20.039             78.545
 Electronic               0.000              0.000              0.000
 Translational            0.889              2.981             39.892
 Rotational               0.889              2.981             27.709
 Vibrational             48.076             14.077             10.945
 Vibration     1          0.609              1.931              3.075
 Vibration     2          0.627              1.875              2.398
 Vibration     3          0.668              1.745              1.660
 Vibration     4          0.738              1.546              1.104
 Vibration     5          0.823              1.326              0.750
 Vibration     6          0.918              1.112              0.519
 Vibration     7          0.931              1.085              0.495

 Optimization completed.
    -- Stationary point found.
 Normal termination of Gaussian 09 at Sat Oct 26 20:10:35 2024.
