 Gaussian 09, Revision A.01,
 Gaussian 09:  EM64L-G09RevA.01  8-May-2009

 ---------------------------------------------
 # opt freq=noraman hf/6-31G geom=connectivity
 ---------------------------------------------

 -------------------
 Title Card Required
 -------------------
 Symbolic Z-matrix:
 Charge =  0 Multiplicity = 1

 SCF Done:  E(RHF) =  -712.538505673     A.U. after   14 cycles
 SCF Done:  E(RHF) =  -712.552755202     A.U. after   15 cycles
 SCF Done:  E(RHF) =  -712.553293106     A.U. after   11 cycles
 SCF Done:  E(RHF) =  -712.553351849     A.U. after   10 cycles
 SCF Done:  E(RHF) =  -712.553354648     A.U. after    9 cycles
 Optimization completed.
    -- Stationary point found.
 Normal termination of Gaussian 09 at Sat Oct 26 18:10:23 2024.

 --------------------------------------------------------------
 #N Geom=AllCheck Guess=TCheck SCRF=Check GenChk RHF/6-31G Freq
 --------------------------------------------------------------

 Title Card Required
 -------------------
 Redundant internal coordinates taken from checkpoint file:
 1-base1.chk
 Charge =  0 Multiplicity = 1

                         Standard orientation:
 ---------------------------------------------------------------------
 Center     Atomic      Atomic             Coordinates (Angstroms)
 Number     Number       Type             X           Y           Z
 ---------------------------------------------------------------------
      1          6           0        0.000000    0.774792    0.000000
      2          6           0       -0.953831   -0.127942    0.000000
      3          1           0       -1.956996    0.255983    0.000000
      4          6           0       -0.774181   -1.576241    0.000000
      5          1           0        0.233662   -1.945795    0.000000
      6          6           0       -1.790112   -2.429405    0.000000
      7          1           0       -2.812744   -2.100451    0.000000
      8          1           0       -1.629354   -3.489115    0.000000
      9          9           0       -0.282045    2.106739    0.000000
     10         17           0        1.753681    0.498324    0.000000
 ---------------------------------------------------------------------

 SCF Done:  E(RHF) =  -712.553354648     A.U. after    1 cycles

 The electronic state is 1-A'.
 Alpha  occ. eigenvalues -- -104.84834 -26.32763 -11.40675 -11.27922 -11.26612
 Alpha  occ. eigenvalues --  -11.25239 -10.58904  -8.05754  -8.05323  -8.05307
 Alpha  occ. eigenvalues --   -1.64302  -1.17996  -1.10921  -1.02863  -0.84828
 Alpha  occ. eigenvalues --   -0.78461  -0.73173  -0.71037  -0.70706  -0.63319
 Alpha  occ. eigenvalues --   -0.61200  -0.55909  -0.52771  -0.52331  -0.48500
 Alpha  occ. eigenvalues --   -0.45545  -0.34388
 Alpha virt. eigenvalues --    0.10216   0.17681   0.23773   0.25015   0.25909
 Alpha virt. eigenvalues --    0.29861   0.32087   0.35207   0.48174   0.50861
 Alpha virt. eigenvalues --    0.54048   0.58148   0.60723   0.62376   0.69194

 Mulliken atomic charges:
              1
     1  C    0.141132
     2  C   -0.199115
     3  H    0.240995
     4  C   -0.141709
     5  H    0.217882
     6  C   -0.361562
     7  H    0.176199
     8  H    0.181957
     9  F   -0.403390
    10  Cl   0.147611
 Sum of Mulliken atomic charges =   0.00000

 Dipole moment (field-independent basis, Debye):
    X=             -1.6012    Y=             -2.3970    Z=              0.0000  Tot=              2.8826
 Quadrupole moment (field-independent basis, Debye-Ang):
   XX=            -38.7338   YY=            -42.9514   ZZ=            -44.0829
   XY=              0.9144   XZ=              0.0000   YZ=              0.0000

  Exact polarizability:  72.547  23.322  64.739   0.000   0.000  16.984
 Approx polarizability:  56.884  14.488  50.993   0.000   0.000  15.389

                     1                      2                      3
                    A"                     A'                     A"
 Frequencies --   116.9588               169.7926               269.8173
 Red. masses --     2.5275                 5.7570                 2.4019
 Frc consts  --     0.0204                 0.0978                 0.1030
 IR Inten    --     0.3763                 1.0707                 0.1726

                     4                      5                      6
                    A'                     A'                     A"
 Frequencies --   357.3065               448.1556               544.6835
 Red. masses --     5.2562                 5.6381                 5.3085
 Frc consts  --     0.3954                 0.6672                 0.9279
 IR Inten    --     1.3828                 2.7546                 0.0340

                     7                      8                      9
                    A'                     A'                     A"
 Frequencies --   563.5749               718.0332               754.2176
 Red. masses --     7.6139                 4.7708                 1.3837
 Frc consts  --     1.4248                 1.4492                 0.4637
 IR Inten    --    14.8167                54.6666                25.9909

                    10                     11                     12
                    A"                     A'                     A"
 Frequencies --  1048.5990              1062.9773              1128.4219
 Red. masses --     1.4613                 1.6070                 1.1857
 Frc consts  --     0.9467                 1.0698                 0.8895
 IR Inten    --     9.0603                22.5337               114.7125

                    13                     14                     15
                    A"                     A'                     A'
 Frequencies --  1164.8412              1224.4155              1317.0999
 Red. masses --     1.2991                 9.5214                 2.3980
 Frc consts  --     1.0386                 8.4102                 2.4510
 IR Inten    --     0.1789               158.4514                23.7228

                    16                     17                     18
                    A'                     A'                     A'
 Frequencies --  1436.9654              1474.7631              1612.3286
 Red. masses --     1.2932                 1.2842                 1.2325
 Frc consts  --     1.5732                 1.6457                 1.8878
 IR Inten    --    59.7645                 0.2006                22.3473

                    19                     20                     21
                    A'                     A'                     A'
 Frequencies --  1838.8122              1933.7642              3333.2045
 Red. masses --     4.2278                 7.3711                 1.0632
 Frc consts  --     8.4225                16.2401                 6.9596
 IR Inten    --     8.3744                72.7176                 6.4929

                    22                     23                     24
                    A'                     A'                     A'
 Frequencies --  3366.4360              3374.0478              3425.9183
 Red. masses --     1.0941                 1.0910                 1.1147
 Frc consts  --     7.3055                 7.3175                 7.7081
 IR Inten    --     0.3157                 7.3779                14.7509

 - Thermochemistry -
 -------------------
 Temperature   298.150 Kelvin.  Pressure   1.00000 Atm.
 Atom     1 has atomic number  6 and mass  12.00000

 Molecular mass:   105.99856 amu.
 Principal axes and moments of inertia in atomic units:
                           1         2         3
     Eigenvalues --   358.757371071.026001429.78337
           X            0.63008   0.77653   0.00000
           Y            0.77653  -0.63008   0.00000
           Z            0.00000   0.00000   1.00000
 This molecule is an asymmetric top.
 Rotational symmetry number  1.
 Rotational temperatures (Kelvin)      0.24143     0.08087     0.06058
 Rotational constants (GHZ):           5.03053     1.68506     1.26225
 Zero-point vibrational energy     195500.5 (Joules/Mol)
                                   46.72575 (Kcal/Mol)
 Warning -- explicit consideration of   7 degrees of freedom as
           vibrations may cause significant error
 Vibrational temperatures:    168.28   244.29   388.21   514.08   644.80
          (Kelvin)            783.68   810.86  1033.09  1085.15  1508.70
                             1529.39  1623.55  1675.94  1761.66  1895.01
                             2067.47  2121.85  2319.78  2645.64  2782.25
                             4795.73  4843.54  4854.50  4929.13

 Zero-point correction=                           0.074462 (Hartree/Particle)
 Thermal correction to Energy=                    0.080401
 Thermal correction to Enthalpy=                  0.081345
 Thermal correction to Gibbs Free Energy=         0.043918
 Sum of electronic and zero-point Energies=           -712.478892
 Sum of electronic and thermal Energies=              -712.472954
 Sum of electronic and thermal Enthalpies=            -712.472010
 Sum of electronic and thermal Free Energies=         -712.509437

                     E (Thermal)             CV                S
                      KCal/Mol        Cal/Mol-Kelvin    Cal/Mol-Kelvin
 Total                   50.452             19.934             78.772
 Electronic               0.000              0.000              0.000
 Translational            0.889              2.981             39.892
 Rotational               0.889              2.981             27.798
 Vibrational             48.675             13.972             11.082
 Vibration     1          0.608              1.935              3.150
 Vibration     2          0.625              1.880              2.438
 Vibration     3          0.674              1.729              1.597
 Vibration     4          0.732              1.560              1.134
 Vibration     5          0.807              1.365              0.801
 Vibration     6          0.900              1.151              0.555
 Vibration     7          0.919              1.110              0.517

 Optimization completed.
    -- Stationary point found.
 Normal termination of Gaussian 09 at Sat Oct 26 18:10:26 2024.
