 Gaussian 09, Revision A.01,
 Gaussian 09:  EM64L-G09RevA.01  8-May-2009

 --------------------------------------------------
 # opt freq=noraman hf/6-31G(d,p) geom=connectivity
 --------------------------------------------------

 -------------------
 Title Card Required
 -------------------
 Symbolic Z-matrix:
 Charge =  0 Multiplicity = 1

 SCF Done:  E(RHF) =  -712.654992131     A.U. after   14 cycles
 SCF Done:  E(RHF) =  -712.671316944     A.U. after   14 cycles
 SCF Done:  E(RHF) =  -712.671748303     A.U. after   11 cycles
 SCF Done:  E(RHF) =  -712.671791514     A.U. after    9 cycles
 SCF Done:  E(RHF) =  -712.671792491     A.U. after    8 cycles
 Optimization completed.
    -- Stationary point found.

 1\1\GINC-MALLOS69\FOpt\RHF\6-31G(d,p)\C4H4Cl1F1\MARLIN\26-Oct-2024\0\\
 # opt freq=noraman hf/6-31G(d,p) geom=connectivity\\Title Card Require
 d\\0,1\C,-2.0588651405,-1.6985371111,0.\C,-1.3519186056,-0.5908533064,
 0.\H,-1.9227275644,0.3211995649,0.\C,0.1083640589,-0.4962993792,0.\H,0
 .6626606211,-1.4181044411,0.\C,0.7547712459,0.6566822805,0.\H,0.236947
 1776,1.6005403737,0.\H,1.8287168789,0.692954904,0.\F,-3.3764251784,-1.
 6759281738,0.\Cl,-1.4625874735,-3.3096890315,0.\\Version=EM64L-G09RevA
 .01\State=1-A'\HF=-712.6717925\RMSD=7.603e-09\RMSF=5.872e-05\Dipole=0.

 Normal termination of Gaussian 09 at Sat Oct 26 20:10:28 2024.

 -------------------------------------------------------------------
 #N Geom=AllCheck Guess=TCheck SCRF=Check GenChk RHF/6-31G(d,p) Freq
 -------------------------------------------------------------------

 Title Card Required
 -------------------
 Redundant internal coordinates taken from checkpoint file:
 1-base3.chk
 Charge =  0 Multiplicity = 1

                         Standard orientation:
 ---------------------------------------------------------------------
 Center     Atomic      Atomic             Coordinates (Angstroms)
 Number     Number       Type             X           Y           Z
 ---------------------------------------------------------------------
      1          6           0        0.000000    0.784622    0.000000
      2          6           0       -0.936799   -0.136868    0.000000
      3          1           0       -1.947478    0.232174    0.000000
      4          6           0       -0.726154   -1.584968    0.000000
      5          1           0        0.290636   -1.935833    0.000000
      6          6           0       -1.719832   -2.456641    0.000000
      7          1           0       -2.750624   -2.146032    0.000000
      8          1           0       -1.532375   -3.514722    0.000000
      9          9           0       -0.295628    2.068787    0.000000
     10         17           0        1.699836    0.535792    0.000000
 ---------------------------------------------------------------------

 SCF Done:  E(RHF) =  -712.671792491     A.U. after    1 cycles

 The electronic state is 1-A'.
 Alpha  occ. eigenvalues -- -104.84932 -26.33607 -11.38951 -11.25577 -11.25150
 Alpha  occ. eigenvalues --  -11.23791 -10.58372  -8.05317  -8.04962  -8.04956
 Alpha  occ. eigenvalues --   -1.65880  -1.17919  -1.09541  -1.01190  -0.85033
 Alpha  occ. eigenvalues --   -0.78570  -0.72507  -0.72090  -0.71918  -0.62451
 Alpha  occ. eigenvalues --   -0.60401  -0.56160  -0.52081  -0.51988  -0.48190
 Alpha  occ. eigenvalues --   -0.44390  -0.33088
 Alpha virt. eigenvalues --    0.11894   0.20341   0.24901   0.26286   0.26635
 Alpha virt. eigenvalues --    0.30800   0.33419   0.36032   0.48300   0.50929
 Alpha virt. eigenvalues --    0.53346   0.54768   0.60314   0.62241   0.67493

 Mulliken atomic charges:
              1
     1  C    0.292428
     2  C   -0.192447
     3  H    0.175469
     4  C   -0.104430
     5  H    0.162072
     6  C   -0.290129
     7  H    0.132792
     8  H    0.141103
     9  F   -0.339331
    10  Cl   0.022473
 Sum of Mulliken atomic charges =   0.00000

 Dipole moment (field-independent basis, Debye):
    X=             -1.0004    Y=             -1.4885    Z=              0.0000  Tot=              1.7934
 Quadrupole moment (field-independent basis, Debye-Ang):
   XX=            -38.0748   YY=            -41.2381   ZZ=            -43.5906
   XY=              0.3667   XZ=              0.0000   YZ=              0.0000

  Exact polarizability:  70.742  23.178  67.461   0.000   0.000  21.571
 Approx polarizability:  57.792  13.804  54.104   0.000   0.000  23.248

                     1                      2                      3
                    A"                     A'                     A"
 Frequencies --   114.9417               173.5572               262.8002
 Red. masses --     2.5325                 5.5876                 2.3892
 Frc consts  --     0.0197                 0.0992                 0.0972
 IR Inten    --     0.1657                 1.0037                 0.0039

                     4                      5                      6
                    A'                     A'                     A'
 Frequencies --   366.3188               469.1241               567.0471
 Red. masses --     4.3108                 6.7478                 7.4220
 Frc consts  --     0.3408                 0.8750                 1.4061
 IR Inten    --     0.6288                 3.6974                10.7550

                     7                      8                      9
                    A"                     A"                     A'
 Frequencies --   570.0558               738.3884               759.2733
 Red. masses --     5.6669                 1.4203                 4.8050
 Frc consts  --     1.0850                 0.4563                 1.6321
 IR Inten    --     0.1641                16.4726                55.8394

                    10                     11                     12
                    A"                     A'                     A"
 Frequencies --   987.8530              1044.9968              1078.5977
 Red. masses --     1.4505                 1.5159                 1.3338
 Frc consts  --     0.8340                 0.9753                 0.9142
 IR Inten    --    12.1658                21.1964                61.5600

                    13                     14                     15
                    A"                     A'                     A'
 Frequencies --  1134.0188              1271.5015              1308.8938
 Red. masses --     1.1322                 4.0866                 3.0023
 Frc consts  --     0.8578                 3.8927                 3.0305
 IR Inten    --    15.8429               100.2017               110.2823

                    16                     17                     18
                    A'                     A'                     A'
 Frequencies --  1395.9689              1445.2011              1582.4314
 Red. masses --     1.4237                 1.3317                 1.2423
 Frc consts  --     1.6346                 1.6388                 1.8329
 IR Inten    --    73.6515                 0.9235                23.2756

                    19                     20                     21
                    A'                     A'                     A'
 Frequencies --  1839.1530              1926.5691              3316.2058
 Red. masses --     4.5038                 7.0844                 1.0619
 Frc consts  --     8.9756                15.4926                 6.8806
 IR Inten    --    18.7922               143.9176                 7.8022

                    22                     23                     24
                    A'                     A'                     A'
 Frequencies --  3355.6053              3361.0034              3405.5401
 Red. masses --     1.0947                 1.0910                 1.1160
 Frc consts  --     7.2628                 7.2614                 7.6259
 IR Inten    --     0.4655                 6.5939                15.3880

 - Thermochemistry -
 -------------------
 Temperature   298.150 Kelvin.  Pressure   1.00000 Atm.
 Atom     1 has atomic number  6 and mass  12.00000

 Molecular mass:   105.99856 amu.
 Principal axes and moments of inertia in atomic units:
                           1         2         3
     Eigenvalues --   340.801451051.861121392.66257
           X            0.60559   0.79578   0.00000
           Y            0.79578  -0.60559   0.00000
           Z            0.00000   0.00000   1.00000
 This molecule is an asymmetric top.
 Rotational symmetry number  1.
 Rotational temperatures (Kelvin)      0.25415     0.08234     0.06219
 Rotational constants (GHZ):           5.29558     1.71576     1.29589
 Zero-point vibrational energy     194243.9 (Joules/Mol)
                                   46.42541 (Kcal/Mol)
 Warning -- explicit consideration of   7 degrees of freedom as
           vibrations may cause significant error
 Vibrational temperatures:    165.38   249.71   378.11   527.05   674.96
          (Kelvin)            815.85   820.18  1062.37  1092.42  1421.30
                             1503.52  1551.86  1631.60  1829.40  1883.20
                             2008.49  2079.32  2276.76  2646.13  2771.90
                             4771.27  4827.96  4835.73  4899.81

 Zero-point correction=                           0.073984 (Hartree/Particle)
 Thermal correction to Energy=                    0.079893
 Thermal correction to Enthalpy=                  0.080837
 Thermal correction to Gibbs Free Energy=         0.043503
 Sum of electronic and zero-point Energies=           -712.597809
 Sum of electronic and thermal Energies=              -712.591900
 Sum of electronic and thermal Enthalpies=            -712.590956
 Sum of electronic and thermal Free Energies=         -712.628290

                     E (Thermal)             CV                S
                      KCal/Mol        Cal/Mol-Kelvin    Cal/Mol-Kelvin
 Total                   50.133             19.921             78.576
 Electronic               0.000              0.000              0.000
 Translational            0.889              2.981             39.892
 Rotational               0.889              2.981             27.703
 Vibrational             48.356             13.960             10.981
 Vibration     1          0.608              1.937              3.184
 Vibration     2          0.627              1.875              2.397
 Vibration     3          0.670              1.741              1.643
 Vibration     4          0.739              1.542              1.095
 Vibration     5          0.826              1.319              0.740
 Vibration     6          0.923              1.103              0.510
 Vibration     7          0.926              1.096              0.504

 Optimization completed.
    -- Stationary point found.

 1\1\GINC-MALLOS69\Freq\RHF\6-31G(d,p)\C4H4Cl1F1\MARLIN\26-Oct-2024\0\\
 #N Geom=AllCheck Guess=TCheck SCRF=Check GenChk RHF/6-31G(d,p) Freq\\T
 itle Card Required\\0,1\C,-2.0588651405,-1.6985371111,0.\C,-1.35191860
 56,-0.5908533064,0.\H,-1.9227275644,0.3211995649,0.\C,0.1083640589,-0.
 4962993792,0.\H,0.6626606211,-1.4181044411,0.\C,0.7547712459,0.6566822
 805,0.\H,0.2369471776,1.6005403737,0.\H,1.8287168789,0.692954904,0.\F,
 -3.3764251784,-1.6759281738,0.\Cl,-1.4625874735,-3.3096890315,0.\\Vers
 ion=EM64L-G09RevA.01\State=1-A'\HF=-712.6717925\RMSD=1.323e-09\RMSF=5.

 Normal termination of Gaussian 09 at Sat Oct 26 20:10:34 2024.
