 Gaussian 09, Revision A.01,
 Gaussian 09:  EM64L-G09RevA.01  8-May-2009

 -----------------------------------------------
 # opt freq=noraman hf/cc-pvtz geom=connectivity
 -----------------------------------------------

 -------------------
 Title Card Required
 -------------------
 Symbolic Z-matrix:
 Charge =  0 Multiplicity = 1

 SCF Done:  E(RHF) =  -712.785223399     A.U. after   13 cycles
 SCF Done:  E(RHF) =  -712.800820299     A.U. after   13 cycles
 SCF Done:  E(RHF) =  -712.801167816     A.U. after   10 cycles
 SCF Done:  E(RHF) =  -712.801185568     A.U. after    9 cycles
 SCF Done:  E(RHF) =  -712.801186610     A.U. after    7 cycles
 Optimization completed.
    -- Stationary point found.
 Normal termination of Gaussian 09 at Sat Oct 26 18:13:55 2024.

 ----------------------------------------------------------------
 #N Geom=AllCheck Guess=TCheck SCRF=Check GenChk RHF/CC-pVTZ Freq
 ----------------------------------------------------------------

 Title Card Required
 -------------------
 Redundant internal coordinates taken from checkpoint file:
 2-base5.chk
 Charge =  0 Multiplicity = 1

                         Standard orientation:
 ---------------------------------------------------------------------
 Center     Atomic      Atomic             Coordinates (Angstroms)
 Number     Number       Type             X           Y           Z
 ---------------------------------------------------------------------
      1          6           0       -1.122110   -0.038030    0.000000
      2          6           0        0.000000    0.647327    0.000000
      3          6           0        1.371603    0.149502    0.000000
      4          1           0        1.481584   -0.915602    0.000000
      5          6           0        2.426367    0.939759    0.000000
      6          1           0        2.336162    2.007976    0.000000
      7          1           0        3.416622    0.527935    0.000000
      8         17           0       -1.191056   -1.762956    0.000000
      9          1           0       -2.072509    0.449507    0.000000
     10          9           0       -0.107674    1.967676    0.000000
 ---------------------------------------------------------------------

 SCF Done:  E(RHF) =  -712.801186610     A.U. after    1 cycles

 The electronic state is 1-A'.
 Alpha  occ. eigenvalues -- -104.84949 -26.32120 -11.34226 -11.29301 -11.25262
 Alpha  occ. eigenvalues --  -11.24580 -10.57426  -8.04121  -8.03926  -8.03921
 Alpha  occ. eigenvalues --   -1.65006  -1.17280  -1.09328  -1.01334  -0.86241
 Alpha  occ. eigenvalues --   -0.79847  -0.72940  -0.71319  -0.71025  -0.63682
 Alpha  occ. eigenvalues --   -0.59452  -0.57935  -0.54017  -0.52292  -0.46109
 Alpha  occ. eigenvalues --   -0.43847  -0.34037
 Alpha virt. eigenvalues --    0.09300   0.15624   0.16836   0.18793   0.20329
 Alpha virt. eigenvalues --    0.21888   0.23225   0.31059   0.32644   0.35837
 Alpha virt. eigenvalues --    0.36852   0.41219   0.43565   0.45402   0.46696

 Mulliken atomic charges:
              1
     1  C   -0.175073
     2  C    0.330979
     3  C   -0.170184
     4  H    0.183336
     5  C   -0.311914
     6  H    0.164116
     7  H    0.151477
     8  Cl  -0.133871
     9  H    0.185394
    10  F   -0.224260
 Sum of Mulliken atomic charges =   0.00000

 Dipole moment (field-independent basis, Debye):
    X=              0.9801    Y=              0.2237    Z=              0.0000  Tot=              1.0053
 Quadrupole moment (field-independent basis, Debye-Ang):
   XX=            -36.0566   YY=            -43.6157   ZZ=            -43.9623
   XY=             -0.6575   XZ=              0.0000   YZ=              0.0000

  Exact polarizability:  83.025  22.252  65.974   0.000   0.000  32.338
 Approx polarizability:  64.921  12.484  57.581   0.000   0.000  36.263

                     1                      2                      3
                    A"                     A'                     A"
 Frequencies --   135.4610               187.0173               277.9420
 Red. masses --     2.1998                 5.5468                 5.6681
 Frc consts  --     0.0238                 0.1143                 0.2580
 IR Inten    --     0.0403                 1.4391                 2.4979

                     4                      5                      6
                    A'                     A'                     A"
 Frequencies --   327.0629               465.2666               482.7651
 Red. masses --     4.7142                12.6894                 1.7489
 Frc consts  --     0.2971                 1.6184                 0.2401
 IR Inten    --     2.0197                 2.2079                 5.5853

                     7                      8                      9
                    A'                     A'                     A"
 Frequencies --   644.5694               813.7386               828.6088
 Red. masses --     3.8888                 4.2224                 2.0822
 Frc consts  --     0.9519                 1.6473                 0.8423
 IR Inten    --     4.1915                11.0145                 1.6120

                    10                     11                     12
                    A"                     A'                     A"
 Frequencies --   929.8824               992.5429              1102.2253
 Red. masses --     1.4974                 4.0854                 1.2478
 Frc consts  --     0.7628                 2.3713                 0.8931
 IR Inten    --    45.5216               109.3214                58.0710

                    13                     14                     15
                    A"                     A'                     A'
 Frequencies --  1128.3306              1133.7265              1316.7070
 Red. masses --     1.1891                 1.5510                 1.6696
 Frc consts  --     0.8920                 1.1746                 1.7055
 IR Inten    --     4.4698                26.4877               110.8681

                    16                     17                     18
                    A'                     A'                     A'
 Frequencies --  1427.6610              1460.1424              1571.6778
 Red. masses --     1.3265                 2.1675                 1.3333
 Frc consts  --     1.5930                 2.7227                 1.9405
 IR Inten    --     3.7249                17.8137                 8.1858

                    19                     20                     21
                    A'                     A'                     A'
 Frequencies --  1796.6132              1884.8798              3303.7366
 Red. masses --     4.6260                 6.6105                 1.0606
 Frc consts  --     8.7975                13.8372                 6.8208
 IR Inten    --    17.4793                20.8420                 3.7954

                    22                     23                     24
                    A'                     A'                     A'
 Frequencies --  3362.5502              3391.0996              3392.1821
 Red. masses --     1.0964                 1.0977                 1.1116
 Frc consts  --     7.3037                 7.4370                 7.5364
 IR Inten    --     0.6458                16.5179                 6.0173

 - Thermochemistry -
 -------------------
 Temperature   298.150 Kelvin.  Pressure   1.00000 Atm.
 Atom     1 has atomic number  6 and mass  12.00000

 Molecular mass:   105.99856 amu.
 Principal axes and moments of inertia in atomic units:
                           1         2         3
     Eigenvalues --   314.620541060.584111375.20464
           X            0.66895   0.74330   0.00000
           Y            0.74330  -0.66895   0.00000
           Z            0.00000   0.00000   1.00000
 This molecule is an asymmetric top.
 Rotational symmetry number  1.
 Rotational temperatures (Kelvin)      0.27530     0.08167     0.06298
 Rotational constants (GHZ):           5.73625     1.70165     1.31234
 Zero-point vibrational energy     193534.2 (Joules/Mol)
                                   46.25578 (Kcal/Mol)
 Warning -- explicit consideration of   6 degrees of freedom as
           vibrations may cause significant error
 Vibrational temperatures:    194.90   269.08   399.90   470.57   669.41
          (Kelvin)            694.59   927.39  1170.79  1192.18  1337.89
                             1428.05  1585.85  1623.41  1631.18  1894.45
                             2054.08  2100.82  2261.29  2584.92  2711.92
                             4753.33  4837.95  4879.03  4880.59

 Zero-point correction=                           0.073713 (Hartree/Particle)
 Thermal correction to Energy=                    0.079586
 Thermal correction to Enthalpy=                  0.080530
 Thermal correction to Gibbs Free Energy=         0.043407
 Sum of electronic and zero-point Energies=           -712.727473
 Sum of electronic and thermal Energies=              -712.721600
 Sum of electronic and thermal Enthalpies=            -712.720656
 Sum of electronic and thermal Free Energies=         -712.757779

                     E (Thermal)             CV                S
                      KCal/Mol        Cal/Mol-Kelvin    Cal/Mol-Kelvin
 Total                   49.941             19.918             78.132
 Electronic               0.000              0.000              0.000
 Translational            0.889              2.981             39.892
 Rotational               0.889              2.981             27.620
 Vibrational             48.164             13.957             10.621
 Vibration     1          0.613              1.918              2.867
 Vibration     2          0.632              1.858              2.257
 Vibration     3          0.679              1.714              1.546
 Vibration     4          0.711              1.621              1.275
 Vibration     5          0.823              1.327              0.751
 Vibration     6          0.839              1.288              0.703

 Optimization completed.
    -- Stationary point found.
 Normal termination of Gaussian 09 at Sat Oct 26 18:14:44 2024.
