 Gaussian 09, Revision A.01,
 Gaussian 09:  EM64L-G09RevA.01  8-May-2009

 ------------------------------------------------
 # opt freq=noraman hf/6-31G(d) geom=connectivity
 ------------------------------------------------

 -------------------
 Title Card Required
 -------------------
 Symbolic Z-matrix:
 Charge =  0 Multiplicity = 1

 SCF Done:  E(RHF) =  -712.652737818     A.U. after   13 cycles
 SCF Done:  E(RHF) =  -712.667763164     A.U. after   14 cycles
 SCF Done:  E(RHF) =  -712.668161993     A.U. after   11 cycles
 SCF Done:  E(RHF) =  -712.668187007     A.U. after    9 cycles
 SCF Done:  E(RHF) =  -712.668188366     A.U. after    8 cycles
 Optimization completed.
    -- Stationary point found.
 Normal termination of Gaussian 09 at Sat Oct 26 20:11:25 2024.

 -----------------------------------------------------------------
 #N Geom=AllCheck Guess=TCheck SCRF=Check GenChk RHF/6-31G(d) Freq
 -----------------------------------------------------------------

 Title Card Required
 -------------------
 Redundant internal coordinates taken from checkpoint file:
 2-base2.chk
 Charge =  0 Multiplicity = 1

                         Standard orientation:
 ---------------------------------------------------------------------
 Center     Atomic      Atomic             Coordinates (Angstroms)
 Number     Number       Type             X           Y           Z
 ---------------------------------------------------------------------
      1          6           0       -1.121696   -0.050105    0.000000
      2          6           0        0.000000    0.642056    0.000000
      3          6           0        1.379848    0.160664    0.000000
      4          1           0        1.506957   -0.904750    0.000000
      5          6           0        2.423625    0.970991    0.000000
      6          1           0        2.317127    2.039139    0.000000
      7          1           0        3.423544    0.578843    0.000000
      8         17           0       -1.188272   -1.777415    0.000000
      9          1           0       -2.074705    0.435628    0.000000
     10          9           0       -0.118108    1.969507    0.000000
 ---------------------------------------------------------------------

 SCF Done:  E(RHF) =  -712.668188366     A.U. after    1 cycles

 The electronic state is 1-A'.
 Alpha  occ. eigenvalues -- -104.83680 -26.32320 -11.34634 -11.29454 -11.25488
 Alpha  occ. eigenvalues --  -11.24946 -10.57027  -8.03974  -8.03633  -8.03622
 Alpha  occ. eigenvalues --   -1.64109  -1.17145  -1.09069  -1.01042  -0.85943
 Alpha  occ. eigenvalues --   -0.79143  -0.72304  -0.70741  -0.70417  -0.63217
 Alpha  occ. eigenvalues --   -0.59164  -0.57712  -0.53867  -0.51932  -0.45949
 Alpha  occ. eigenvalues --   -0.43529  -0.33646
 Alpha virt. eigenvalues --    0.10562   0.20810   0.25266   0.26098   0.28008
 Alpha virt. eigenvalues --    0.29065   0.33682   0.40916   0.46709   0.48579
 Alpha virt. eigenvalues --    0.52715   0.57658   0.62661   0.63250   0.65839

 Mulliken atomic charges:
              1
     1  C   -0.431374
     2  C    0.535688
     3  C   -0.232007
     4  H    0.235282
     5  C   -0.378879
     6  H    0.213623
     7  H    0.197776
     8  Cl  -0.009539
     9  H    0.251916
    10  F   -0.382487
 Sum of Mulliken atomic charges =   0.00000

 Dipole moment (field-independent basis, Debye):
    X=              1.1394    Y=              0.3555    Z=              0.0000  Tot=              1.1935
 Quadrupole moment (field-independent basis, Debye-Ang):
   XX=            -35.8134   YY=            -43.4665   ZZ=            -43.6385
   XY=             -0.6603   XZ=              0.0000   YZ=              0.0000

  Exact polarizability:  75.555  22.335  61.196   0.000   0.000  21.069
 Approx polarizability:  58.014  13.860  52.045   0.000   0.000  22.492

                     1                      2                      3
                    A"                     A'                     A"
 Frequencies --   130.0584               187.1751               280.0178
 Red. masses --     2.2012                 5.5595                 5.7055
 Frc consts  --     0.0219                 0.1148                 0.2636
 IR Inten    --     0.0013                 1.4498                 2.6063

                     4                      5                      6
                    A'                     A'                     A"
 Frequencies --   329.9995               466.2778               478.9233
 Red. masses --     4.7507                12.4669                 1.7797
 Frc consts  --     0.3048                 1.5970                 0.2405
 IR Inten    --     2.4889                 2.6118                 2.6492

                     7                      8                      9
                    A'                     A'                     A"
 Frequencies --   646.3346               822.2620               822.7536
 Red. masses --     3.9041                 4.2469                 2.1607
 Frc consts  --     0.9609                 1.6918                 0.8618
 IR Inten    --     3.9380                10.2916                 4.5552

                    10                     11                     12
                    A"                     A'                     A"
 Frequencies --   930.0491              1000.2976              1109.5229
 Red. masses --     1.4463                 4.1349                 1.2948
 Frc consts  --     0.7371                 2.4377                 0.9392
 IR Inten    --    61.7538               111.2206                52.1959

                    13                     14                     15
                    A"                     A'                     A'
 Frequencies --  1132.8758              1142.4528              1333.7947
 Red. masses --     1.1427                 1.5475                 1.6888
 Frc consts  --     0.8641                 1.1900                 1.7701
 IR Inten    --    11.2718                27.0863               103.8281

                    16                     17                     18
                    A'                     A'                     A'
 Frequencies --  1442.8589              1478.8719              1590.6529
 Red. masses --     1.3093                 2.1405                 1.3374
 Frc consts  --     1.6060                 2.7582                 1.9938
 IR Inten    --     3.0571                13.9795                 8.0484

                    19                     20                     21
                    A'                     A'                     A'
 Frequencies --  1826.0231              1915.1592              3358.5933
 Red. masses --     4.6517                 6.6182                 1.0608
 Frc consts  --     9.1385                14.3022                 7.0500
 IR Inten    --    10.1201                25.9472                 5.5229

                    22                     23                     24
                    A'                     A'                     A'
 Frequencies --  3406.9823              3445.8907              3448.6467
 Red. masses --     1.0957                 1.1162                 1.0946
 Frc consts  --     7.4934                 7.8091                 7.6700
 IR Inten    --     1.1888                 6.4194                15.2161

 - Thermochemistry -
 -------------------
 Temperature   298.150 Kelvin.  Pressure   1.00000 Atm.
 Atom     1 has atomic number  6 and mass  12.00000

 Molecular mass:   105.99856 amu.
 Principal axes and moments of inertia in atomic units:
                           1         2         3
     Eigenvalues --   313.587661071.332991384.92065
           X            0.66461   0.74719   0.00000
           Y            0.74719  -0.66461   0.00000
           Z            0.00000   0.00000   1.00000
 This molecule is an asymmetric top.
 Rotational symmetry number  1.
 Rotational temperatures (Kelvin)      0.27620     0.08085     0.06254
 Rotational constants (GHZ):           5.75514     1.68458     1.30314
 Zero-point vibrational energy     195747.8 (Joules/Mol)
                                   46.78484 (Kcal/Mol)
 Warning -- explicit consideration of   6 degrees of freedom as
           vibrations may cause significant error
 Vibrational temperatures:    187.12   269.30   402.88   474.80   670.87
          (Kelvin)            689.06   929.93  1183.05  1183.76  1338.13
                             1439.20  1596.35  1629.95  1643.73  1919.03
                             2075.95  2127.76  2288.59  2627.24  2755.48
                             4832.26  4901.88  4957.86  4961.83

 Zero-point correction=                           0.074556 (Hartree/Particle)
 Thermal correction to Energy=                    0.080428
 Thermal correction to Enthalpy=                  0.081372
 Thermal correction to Gibbs Free Energy=         0.044224
 Sum of electronic and zero-point Energies=           -712.593632
 Sum of electronic and thermal Energies=              -712.587760
 Sum of electronic and thermal Enthalpies=            -712.586816
 Sum of electronic and thermal Free Energies=         -712.623964

                     E (Thermal)             CV                S
                      KCal/Mol        Cal/Mol-Kelvin    Cal/Mol-Kelvin
 Total                   50.469             19.860             78.185
 Electronic               0.000              0.000              0.000
 Translational            0.889              2.981             39.892
 Rotational               0.889              2.981             27.633
 Vibrational             48.692             13.899             10.660
 Vibration     1          0.612              1.923              2.945
 Vibration     2          0.632              1.857              2.256
 Vibration     3          0.680              1.711              1.534
 Vibration     4          0.713              1.616              1.260
 Vibration     5          0.824              1.325              0.748
 Vibration     6          0.835              1.297              0.713

 Optimization completed.
    -- Stationary point found.
 Normal termination of Gaussian 09 at Sat Oct 26 20:11:30 2024.
