 Gaussian 09, Revision A.01,
 Gaussian 09:  EM64L-G09RevA.01  8-May-2009

 ---------------------------------------------
 # opt freq=noraman hf/6-31G geom=connectivity
 ---------------------------------------------

 -------------------
 Title Card Required
 -------------------
 Symbolic Z-matrix:
 Charge =  0 Multiplicity = 1

 SCF Done:  E(RHF) =  -712.545151687     A.U. after   14 cycles
 SCF Done:  E(RHF) =  -712.559972455     A.U. after   14 cycles
 SCF Done:  E(RHF) =  -712.561013141     A.U. after   11 cycles
 SCF Done:  E(RHF) =  -712.561117501     A.U. after   10 cycles
 SCF Done:  E(RHF) =  -712.561125248     A.U. after    9 cycles
 Optimization completed.
    -- Stationary point found.
 Normal termination of Gaussian 09 at Sat Oct 26 19:11:22 2024.

 --------------------------------------------------------------
 #N Geom=AllCheck Guess=TCheck SCRF=Check GenChk RHF/6-31G Freq
 --------------------------------------------------------------

 Title Card Required
 -------------------
 Redundant internal coordinates taken from checkpoint file:
 2-base1.chk
 Charge =  0 Multiplicity = 1

                         Standard orientation:
 ---------------------------------------------------------------------
 Center     Atomic      Atomic             Coordinates (Angstroms)
 Number     Number       Type             X           Y           Z
 ---------------------------------------------------------------------
      1          6           0       -1.122755   -0.047105    0.000000
      2          6           0        0.000000    0.640917    0.000000
      3          6           0        1.382630    0.190864    0.000000
      4          1           0        1.525114   -0.870978    0.000000
      5          6           0        2.418113    1.018469    0.000000
      6          1           0        2.297674    2.083298    0.000000
      7          1           0        3.421501    0.642125    0.000000
      8         17           0       -1.171665   -1.836168    0.000000
      9          1           0       -2.083602    0.411504    0.000000
     10          9           0       -0.145590    2.014448    0.000000
 ---------------------------------------------------------------------

 SCF Done:  E(RHF) =  -712.561125248     A.U. after    1 cycles

 The electronic state is 1-A'.
 Alpha  occ. eigenvalues -- -104.83656 -26.31517 -11.36629 -11.31838 -11.26842
 Alpha  occ. eigenvalues --  -11.26039 -10.57660  -8.04510  -8.04102  -8.04081
 Alpha  occ. eigenvalues --   -1.62660  -1.17480  -1.10224  -1.02617  -0.86992
 Alpha  occ. eigenvalues --   -0.77985  -0.72112  -0.71134  -0.69367  -0.63521
 Alpha  occ. eigenvalues --   -0.60295  -0.56403  -0.54207  -0.52192  -0.46711
 Alpha  occ. eigenvalues --   -0.44755  -0.34855
 Alpha virt. eigenvalues --    0.09091   0.17480   0.24487   0.24743   0.27255
 Alpha virt. eigenvalues --    0.28769   0.32817   0.39946   0.47230   0.48058
 Alpha virt. eigenvalues --    0.53345   0.61197   0.63090   0.63233   0.66023

 Mulliken atomic charges:
              1
     1  C   -0.504847
     2  C    0.516627
     3  C   -0.191781
     4  H    0.237800
     5  C   -0.335614
     6  H    0.212175
     7  H    0.185338
     8  Cl   0.072379
     9  H    0.256678
    10  F   -0.448754
 Sum of Mulliken atomic charges =   0.00000

 Dipole moment (field-independent basis, Debye):
    X=              1.3511    Y=              0.1964    Z=              0.0000  Tot=              1.3653
 Quadrupole moment (field-independent basis, Debye-Ang):
   XX=            -35.3588   YY=            -46.5780   ZZ=            -44.0992
   XY=             -0.5944   XZ=              0.0000   YZ=              0.0000

  Exact polarizability:  73.524  23.675  63.599   0.000   0.000  16.690
 Approx polarizability:  55.101  15.269  52.051   0.000   0.000  15.103

                     1                      2                      3
                    A"                     A'                     A"
 Frequencies --   131.8451               182.2416               277.7079
 Red. masses --     2.1932                 5.6327                 5.8892
 Frc consts  --     0.0225                 0.1102                 0.2676
 IR Inten    --     0.0002                 1.7996                 5.6148

                     4                      5                      6
                    A'                     A'                     A"
 Frequencies --   328.1719               442.1943               478.9744
 Red. masses --     4.8994                12.5963                 1.7816
 Frc consts  --     0.3109                 1.4512                 0.2408
 IR Inten    --     4.6098                 2.3809                 3.6532

                     7                      8                      9
                    A'                     A'                     A"
 Frequencies --   652.5029               798.0962               840.1627
 Red. masses --     3.8755                 4.8793                 2.0009
 Frc consts  --     0.9722                 1.8311                 0.8322
 IR Inten    --     3.5781                22.3380                 4.7077

                    10                     11                     12
                    A'                     A"                     A"
 Frequencies --   949.2879               978.1818              1140.2602
 Red. masses --     4.7026                 1.4708                 1.0929
 Frc consts  --     2.4968                 0.8292                 0.8372
 IR Inten    --   100.5332                95.7755                84.6213

                    13                     14                     15
                    A'                     A"                     A'
 Frequencies --  1147.3821              1173.7408              1306.0747
 Red. masses --     1.6276                 1.4022                 1.6297
 Frc consts  --     1.2624                 1.1382                 1.6379
 IR Inten    --    34.5250                 8.1945                63.9555

                    16                     17                     18
                    A'                     A'                     A'
 Frequencies --  1464.6968              1472.9761              1605.3268
 Red. masses --     1.8601                 1.3604                 1.2700
 Frc consts  --     2.3511                 1.7390                 1.9284
 IR Inten    --     6.5897                 0.7435                11.0742

                    19                     20                     21
                    A'                     A'                     A'
 Frequencies --  1824.2506              1922.7279              3353.2716
 Red. masses --     4.4025                 7.2234                 1.0619
 Frc consts  --     8.6321                15.7335                 7.0349
 IR Inten    --     5.1968                30.9953                 2.7965

                    22                     23                     24
                    A'                     A'                     A'
 Frequencies --  3398.1345              3446.8461              3485.7463
 Red. masses --     1.0956                 1.1158                 1.0957
 Frc consts  --     7.4538                 7.8103                 7.8436
 IR Inten    --     2.1397                 5.3840                20.5898

 - Thermochemistry -
 -------------------
 Temperature   298.150 Kelvin.  Pressure   1.00000 Atm.
 Atom     1 has atomic number  6 and mass  12.00000

 Molecular mass:   105.99856 amu.
 Principal axes and moments of inertia in atomic units:
                           1         2         3
     Eigenvalues --   320.965931102.512011423.47795
           X            0.64204   0.76667   0.00000
           Y            0.76667  -0.64204   0.00000
           Z            0.00000   0.00000   1.00000
 This molecule is an asymmetric top.
 Rotational symmetry number  1.
 Rotational temperatures (Kelvin)      0.26985     0.07856     0.06085
 Rotational constants (GHZ):           5.62284     1.63694     1.26784
 Zero-point vibrational energy     196192.4 (Joules/Mol)
                                   46.89110 (Kcal/Mol)
 Warning -- explicit consideration of   6 degrees of freedom as
           vibrations may cause significant error
 Vibrational temperatures:    189.70   262.20   399.56   472.17   636.22
          (Kelvin)            689.14   938.80  1148.28  1208.81  1365.81
                             1407.38  1640.58  1650.82  1688.75  1879.15
                             2107.37  2119.28  2309.70  2624.69  2766.37
                             4824.60  4889.15  4959.24  5015.21

 Zero-point correction=                           0.074726 (Hartree/Particle)
 Thermal correction to Energy=                    0.080621
 Thermal correction to Enthalpy=                  0.081565
 Thermal correction to Gibbs Free Energy=         0.044332
 Sum of electronic and zero-point Energies=           -712.486400
 Sum of electronic and thermal Energies=              -712.480504
 Sum of electronic and thermal Enthalpies=            -712.479560
 Sum of electronic and thermal Free Energies=         -712.516793

                     E (Thermal)             CV                S
                      KCal/Mol        Cal/Mol-Kelvin    Cal/Mol-Kelvin
 Total                   50.590             19.872             78.364
 Electronic               0.000              0.000              0.000
 Translational            0.889              2.981             39.892
 Rotational               0.889              2.981             27.712
 Vibrational             48.813             13.910             10.760
 Vibration     1          0.612              1.922              2.919
 Vibration     2          0.630              1.864              2.305
 Vibration     3          0.679              1.715              1.548
 Vibration     4          0.711              1.619              1.269
 Vibration     5          0.802              1.378              0.820
 Vibration     6          0.835              1.297              0.713

 Optimization completed.
    -- Stationary point found.
 Normal termination of Gaussian 09 at Sat Oct 26 19:11:25 2024.
