 Gaussian 09, Revision A.01,
 Gaussian 09:  EM64L-G09RevA.01  8-May-2009

 --------------------------------------------------
 # opt freq=noraman hf/6-31G(d,p) geom=connectivity
 --------------------------------------------------

 -------------------
 Title Card Required
 -------------------
 Symbolic Z-matrix:
 Charge =  0 Multiplicity = 1

 SCF Done:  E(RHF) =  -712.659967645     A.U. after   13 cycles
 SCF Done:  E(RHF) =  -712.674968008     A.U. after   14 cycles
 SCF Done:  E(RHF) =  -712.675351207     A.U. after   11 cycles
 SCF Done:  E(RHF) =  -712.675374139     A.U. after    9 cycles
 SCF Done:  E(RHF) =  -712.675375464     A.U. after    8 cycles
 Optimization completed.
    -- Stationary point found.

 1\1\GINC-MALLOS69\FOpt\RHF\6-31G(d,p)\C4H4Cl1F1\MARLIN\26-Oct-2024\0\\
 # opt freq=noraman hf/6-31G(d,p) geom=connectivity\\Title Card Require
 d\\0,1\C,-2.0828070175,-1.7046333325,0.\C,-1.3371665098,-0.6178782407,
 0.\C,0.1192769271,-0.4988711932,0.\H,0.6677922338,-1.4215251437,0.\C,0
 .7433624692,0.6654592095,0.\H,0.2087127359,1.5968000795,0.\H,1.8167252
 984,0.7126736044,0.\Cl,-1.4426057579,-3.3103171773,0.\H,-3.1511624956,
 -1.6451620045,0.\F,-1.9827113535,0.5481837785,0.\\Version=EM64L-G09Rev
 A.01\State=1-A'\HF=-712.6753755\RMSD=4.606e-09\RMSF=3.369e-05\Dipole=0

 Normal termination of Gaussian 09 at Sat Oct 26 20:11:27 2024.

 -------------------------------------------------------------------
 #N Geom=AllCheck Guess=TCheck SCRF=Check GenChk RHF/6-31G(d,p) Freq
 -------------------------------------------------------------------

 Title Card Required
 -------------------
 Redundant internal coordinates taken from checkpoint file:
 2-base3.chk
 Charge =  0 Multiplicity = 1

                         Standard orientation:
 ---------------------------------------------------------------------
 Center     Atomic      Atomic             Coordinates (Angstroms)
 Number     Number       Type             X           Y           Z
 ---------------------------------------------------------------------
      1          6           0       -1.122041   -0.049918    0.000000
      2          6           0        0.000000    0.641487    0.000000
      3          6           0        1.379741    0.160131    0.000000
      4          1           0        1.507346   -0.905644    0.000000
      5          6           0        2.422087    0.971711    0.000000
      6          1           0        2.310679    2.039809    0.000000
      7          1           0        3.422516    0.579945    0.000000
      8         17           0       -1.187380   -1.777288    0.000000
      9          1           0       -2.074662    0.437354    0.000000
     10          9           0       -0.117682    1.969109    0.000000
 ---------------------------------------------------------------------

 SCF Done:  E(RHF) =  -712.675375464     A.U. after    1 cycles

 The electronic state is 1-A'.
 Alpha  occ. eigenvalues -- -104.83658 -26.32315 -11.34618 -11.29455 -11.25492
 Alpha  occ. eigenvalues --  -11.24964 -10.57004  -8.03951  -8.03611  -8.03601
 Alpha  occ. eigenvalues --   -1.64100  -1.17128  -1.09066  -1.01032  -0.85902
 Alpha  occ. eigenvalues --   -0.79107  -0.72280  -0.70649  -0.70409  -0.63139
 Alpha  occ. eigenvalues --   -0.59068  -0.57679  -0.53764  -0.51919  -0.45920
 Alpha  occ. eigenvalues --   -0.43525  -0.33649
 Alpha virt. eigenvalues --    0.10508   0.20824   0.25262   0.26019   0.28003
 Alpha virt. eigenvalues --    0.29059   0.33630   0.40845   0.46655   0.48459
 Alpha virt. eigenvalues --    0.52647   0.57586   0.62597   0.63259   0.65691

 Mulliken atomic charges:
              1
     1  C   -0.366162
     2  C    0.517134
     3  C   -0.183674
     4  H    0.180739
     5  C   -0.265580
     6  H    0.162093
     7  H    0.147429
     8  Cl  -0.010947
     9  H    0.201334
    10  F   -0.382365
 Sum of Mulliken atomic charges =   0.00000

 Dipole moment (field-independent basis, Debye):
    X=              1.1395    Y=              0.3598    Z=              0.0000  Tot=              1.1949
 Quadrupole moment (field-independent basis, Debye-Ang):
   XX=            -35.8197   YY=            -43.4664   ZZ=            -43.6067
   XY=             -0.6994   XZ=              0.0000   YZ=              0.0000

  Exact polarizability:  75.975  22.375  61.486   0.000   0.000  21.431
 Approx polarizability:  58.426  13.905  52.393   0.000   0.000  23.033

                     1                      2                      3
                    A"                     A'                     A"
 Frequencies --   130.3607               186.8505               279.9535
 Red. masses --     2.2053                 5.5527                 5.6980
 Frc consts  --     0.0221                 0.1142                 0.2631
 IR Inten    --     0.0010                 1.4507                 2.6629

                     4                      5                      6
                    A'                     A'                     A"
 Frequencies --   329.3845               466.0927               478.7325
 Red. masses --     4.7241                12.4366                 1.7786
 Frc consts  --     0.3020                 1.5918                 0.2402
 IR Inten    --     2.5164                 2.6181                 2.6406

                     7                      8                      9
                    A'                     A'                     A"
 Frequencies --   645.6994               821.4388               821.5427
 Red. masses --     3.8876                 4.2329                 2.1510
 Frc consts  --     0.9550                 1.6828                 0.8554
 IR Inten    --     3.9932                10.3771                 4.2271

                    10                     11                     12
                    A"                     A'                     A"
 Frequencies --   927.6635               998.8350              1107.9022
 Red. masses --     1.4498                 4.0652                 1.2799
 Frc consts  --     0.7351                 2.3896                 0.9256
 IR Inten    --    60.9420               110.7217                52.8443

                    13                     14                     15
                    A"                     A'                     A'
 Frequencies --  1129.6711              1138.0184              1326.0459
 Red. masses --     1.1549                 1.5450                 1.6459
 Frc consts  --     0.8684                 1.1789                 1.7051
 IR Inten    --     9.1048                26.3497               102.0201

                    16                     17                     18
                    A'                     A'                     A'
 Frequencies --  1434.4147              1472.2757              1579.8748
 Red. masses --     1.3095                 2.1757                 1.3495
 Frc consts  --     1.5875                 2.7786                 1.9846
 IR Inten    --     3.0783                16.0470                 9.0624

                    19                     20                     21
                    A'                     A'                     A'
 Frequencies --  1823.5606              1913.7255              3335.5170
 Red. masses --     4.7843                 6.7539                 1.0610
 Frc consts  --     9.3736                14.5735                 6.9552
 IR Inten    --    10.3699                26.6403                 4.2095

                    22                     23                     24
                    A'                     A'                     A'
 Frequencies --  3388.3089              3426.8955              3428.1732
 Red. masses --     1.0960                 1.1139                 1.0971
 Frc consts  --     7.4136                 7.7070                 7.5968
 IR Inten    --     1.3998                 7.6832                15.5126

 - Thermochemistry -
 -------------------
 Temperature   298.150 Kelvin.  Pressure   1.00000 Atm.
 Atom     1 has atomic number  6 and mass  12.00000

 Molecular mass:   105.99856 amu.
 Principal axes and moments of inertia in atomic units:
                           1         2         3
     Eigenvalues --   313.381761070.726361384.10812
           X            0.66429   0.74747   0.00000
           Y            0.74747  -0.66429   0.00000
           Z            0.00000   0.00000   1.00000
 This molecule is an asymmetric top.
 Rotational symmetry number  1.
 Rotational temperatures (Kelvin)      0.27638     0.08089     0.06258
 Rotational constants (GHZ):           5.75892     1.68553     1.30390
 Zero-point vibrational energy     194937.1 (Joules/Mol)
                                   46.59108 (Kcal/Mol)
 Warning -- explicit consideration of   6 degrees of freedom as
           vibrations may cause significant error
 Vibrational temperatures:    187.56   268.84   402.79   473.91   670.60
          (Kelvin)            688.79   929.02  1181.87  1182.02  1334.70
                             1437.10  1594.02  1625.34  1637.35  1907.88
                             2063.80  2118.27  2273.08  2623.69  2753.42
                             4799.06  4875.01  4930.53  4932.37

 Zero-point correction=                           0.074248 (Hartree/Particle)
 Thermal correction to Energy=                    0.080124
 Thermal correction to Enthalpy=                  0.081068
 Thermal correction to Gibbs Free Energy=         0.043915
 Sum of electronic and zero-point Energies=           -712.601128
 Sum of electronic and thermal Energies=              -712.595252
 Sum of electronic and thermal Enthalpies=            -712.594308
 Sum of electronic and thermal Free Energies=         -712.631461

                     E (Thermal)             CV                S
                      KCal/Mol        Cal/Mol-Kelvin    Cal/Mol-Kelvin
 Total                   50.278             19.889             78.195
 Electronic               0.000              0.000              0.000
 Translational            0.889              2.981             39.892
 Rotational               0.889              2.981             27.632
 Vibrational             48.501             13.928             10.672
 Vibration     1          0.612              1.923              2.941
 Vibration     2          0.632              1.858              2.259
 Vibration     3          0.680              1.711              1.534
 Vibration     4          0.712              1.617              1.263
 Vibration     5          0.823              1.325              0.749
 Vibration     6          0.835              1.297              0.713

 Optimization completed.
    -- Stationary point found.

 1\1\GINC-MALLOS69\Freq\RHF\6-31G(d,p)\C4H4Cl1F1\MARLIN\26-Oct-2024\0\\
 #N Geom=AllCheck Guess=TCheck SCRF=Check GenChk RHF/6-31G(d,p) Freq\\T
 itle Card Required\\0,1\C,-2.0828070175,-1.7046333325,0.\C,-1.33716650
 98,-0.6178782407,0.\C,0.1192769271,-0.4988711932,0.\H,0.6677922338,-1.
 4215251437,0.\C,0.7433624692,0.6654592095,0.\H,0.2087127359,1.59680007
 95,0.\H,1.8167252984,0.7126736044,0.\Cl,-1.4426057579,-3.3103171773,0.
 \H,-3.1511624956,-1.6451620045,0.\F,-1.9827113535,0.5481837785,0.\\Ver
 sion=EM64L-G09RevA.01\State=1-A'\HF=-712.6753755\RMSD=1.169e-09\RMSF=3

 Normal termination of Gaussian 09 at Sat Oct 26 20:11:32 2024.
