 Gaussian 09, Revision A.01,
 Gaussian 09:  EM64L-G09RevA.01  8-May-2009

 -----------------------------------------------
 # opt freq=noraman hf/cc-pvdz geom=connectivity
 -----------------------------------------------

 -------------------
 Title Card Required
 -------------------
 Symbolic Z-matrix:
 Charge =  0 Multiplicity = 1

 SCF Done:  E(RHF) =  -712.694457331     A.U. after   14 cycles
 SCF Done:  E(RHF) =  -712.708438692     A.U. after   14 cycles
 SCF Done:  E(RHF) =  -712.708820750     A.U. after   11 cycles
 SCF Done:  E(RHF) =  -712.708840079     A.U. after    9 cycles
 SCF Done:  E(RHF) =  -712.708841386     A.U. after    8 cycles
 Optimization completed.
    -- Stationary point found.
 Normal termination of Gaussian 09 at Sat Oct 26 19:13:29 2024.

 ----------------------------------------------------------------
 #N Geom=AllCheck Guess=TCheck SCRF=Check GenChk RHF/CC-pVDZ Freq
 ----------------------------------------------------------------

 Title Card Required
 -------------------
 Redundant internal coordinates taken from checkpoint file:
 2-base4.chk
 Charge =  0 Multiplicity = 1

                         Standard orientation:
 ---------------------------------------------------------------------
 Center     Atomic      Atomic             Coordinates (Angstroms)
 Number     Number       Type             X           Y           Z
 ---------------------------------------------------------------------
      1          6           0       -1.127421   -0.041765    0.000000
      2          6           0        0.000000    0.647547    0.000000
      3          6           0        1.375252    0.152434    0.000000
      4          1           0        1.490453   -0.921080    0.000000
      5          6           0        2.430273    0.954246    0.000000
      6          1           0        2.329242    2.030675    0.000000
      7          1           0        3.431998    0.546265    0.000000
      8         17           0       -1.191251   -1.773908    0.000000
      9          1           0       -2.086420    0.449409    0.000000
     10          9           0       -0.109180    1.975155    0.000000
 ---------------------------------------------------------------------

 SCF Done:  E(RHF) =  -712.708841386     A.U. after    1 cycles

 The electronic state is 1-A'.
 Alpha  occ. eigenvalues -- -104.84528 -26.32450 -11.34882 -11.30076 -11.26118
 Alpha  occ. eigenvalues --  -11.25780 -10.57185  -8.03954  -8.03606  -8.03593
 Alpha  occ. eigenvalues --   -1.64897  -1.17203  -1.09268  -1.01256  -0.86054
 Alpha  occ. eigenvalues --   -0.79430  -0.72503  -0.70812  -0.70674  -0.63257
 Alpha  occ. eigenvalues --   -0.59166  -0.57668  -0.53806  -0.52044  -0.46014
 Alpha  occ. eigenvalues --   -0.43702  -0.33862
 Alpha virt. eigenvalues --    0.09808   0.19588   0.20450   0.22518   0.23435
 Alpha virt. eigenvalues --    0.24741   0.26963   0.38774   0.42153   0.43778
 Alpha virt. eigenvalues --    0.48415   0.59814   0.64233   0.64527   0.69254

 Mulliken atomic charges:
              1
     1  C   -0.091241
     2  C    0.325294
     3  C   -0.163278
     4  H    0.055234
     5  C    0.024668
     6  H    0.065299
     7  H    0.060368
     8  Cl  -0.095042
     9  H    0.091017
    10  F   -0.272319
 Sum of Mulliken atomic charges =   0.00000

 Dipole moment (field-independent basis, Debye):
    X=              1.0490    Y=              0.2233    Z=              0.0000  Tot=              1.0725
 Quadrupole moment (field-independent basis, Debye-Ang):
   XX=            -35.9251   YY=            -43.7488   ZZ=            -43.9352
   XY=             -0.6186   XZ=              0.0000   YZ=              0.0000

  Exact polarizability:  78.339  22.347  62.332   0.000   0.000  22.863
 Approx polarizability:  60.290  13.496  54.079   0.000   0.000  25.479

                     1                      2                      3
                    A"                     A'                     A"
 Frequencies --   137.0783               186.9437               276.7959
 Red. masses --     2.2132                 5.5462                 5.6676
 Frc consts  --     0.0245                 0.1142                 0.2558
 IR Inten    --     0.0135                 1.4394                 2.8251

                     4                      5                      6
                    A'                     A'                     A"
 Frequencies --   327.2398               462.8094               483.3395
 Red. masses --     4.7209                12.4491                 1.7283
 Frc consts  --     0.2979                 1.5711                 0.2379
 IR Inten    --     2.3967                 2.4110                 4.0664

                     7                      8                      9
                    A'                     A'                     A"
 Frequencies --   641.8424               815.8547               824.9736
 Red. masses --     3.8277                 4.2708                 2.0899
 Frc consts  --     0.9291                 1.6749                 0.8380
 IR Inten    --     4.0486                11.5087                 1.7033

                    10                     11                     12
                    A"                     A'                     A"
 Frequencies --   915.9939               986.2074              1088.4807
 Red. masses --     1.5063                 3.9675                 1.3028
 Frc consts  --     0.7447                 2.2736                 0.9094
 IR Inten    --    54.7024               116.7594                43.3732

                    13                     14                     15
                    A"                     A'                     A'
 Frequencies --  1117.5073              1123.7919              1300.6059
 Red. masses --     1.1419                 1.5497                 1.5596
 Frc consts  --     0.8402                 1.1531                 1.5544
 IR Inten    --    11.7881                28.8287               102.6876

                    16                     17                     18
                    A'                     A'                     A'
 Frequencies --  1414.2550              1453.8217              1557.1190
 Red. masses --     1.3110                 2.2045                 1.3706
 Frc consts  --     1.5450                 2.7453                 1.9580
 IR Inten    --     3.7877                22.1593                10.2343

                    19                     20                     21
                    A'                     A'                     A'
 Frequencies --  1811.4092              1905.3900              3324.4832
 Red. masses --     5.0922                 7.1429                 1.0616
 Frc consts  --     9.8444                15.2789                 6.9126
 IR Inten    --    11.4949                25.6459                 2.9848

                    22                     23                     24
                    A'                     A'                     A'
 Frequencies --  3387.1226              3416.9596              3423.2891
 Red. masses --     1.0964                 1.0950                 1.1164
 Frc consts  --     7.4113                 7.5327                 7.7081
 IR Inten    --     1.0158                19.3129                 2.9757

 - Thermochemistry -
 -------------------
 Temperature   298.150 Kelvin.  Pressure   1.00000 Atm.
 Atom     1 has atomic number  6 and mass  12.00000

 Molecular mass:   105.99856 amu.
 Principal axes and moments of inertia in atomic units:
                           1         2         3
     Eigenvalues --   315.990831070.120701386.11153
           X            0.66635   0.74564   0.00000
           Y            0.74564  -0.66635   0.00000
           Z            0.00000   0.00000   1.00000
 This molecule is an asymmetric top.
 Rotational symmetry number  1.
 Rotational temperatures (Kelvin)      0.27410     0.08094     0.06249
 Rotational constants (GHZ):           5.71137     1.68648     1.30202
 Zero-point vibrational energy     193695.2 (Joules/Mol)
                                   46.29427 (Kcal/Mol)
 Warning -- explicit consideration of   6 degrees of freedom as
           vibrations may cause significant error
 Vibrational temperatures:    197.22   268.97   398.25   470.82   665.88
          (Kelvin)            695.42   923.47  1173.83  1186.95  1317.91
                             1418.93  1566.08  1607.84  1616.88  1871.28
                             2034.79  2091.72  2240.34  2606.21  2741.43
                             4783.18  4873.31  4916.24  4925.34

 Zero-point correction=                           0.073775 (Hartree/Particle)
 Thermal correction to Energy=                    0.079657
 Thermal correction to Enthalpy=                  0.080602
 Thermal correction to Gibbs Free Energy=         0.043461
 Sum of electronic and zero-point Energies=           -712.635067
 Sum of electronic and thermal Energies=              -712.629184
 Sum of electronic and thermal Enthalpies=            -712.628240
 Sum of electronic and thermal Free Energies=         -712.665380

                     E (Thermal)             CV                S
                      KCal/Mol        Cal/Mol-Kelvin    Cal/Mol-Kelvin
 Total                   49.986             19.999             78.169
 Electronic               0.000              0.000              0.000
 Translational            0.889              2.981             39.892
 Rotational               0.889              2.981             27.641
 Vibrational             48.208             14.037             10.637
 Vibration     1          0.614              1.916              2.844
 Vibration     2          0.632              1.858              2.258
 Vibration     3          0.678              1.716              1.553
 Vibration     4          0.711              1.621              1.274
 Vibration     5          0.820              1.333              0.758
 Vibration     6          0.840              1.287              0.701

 Optimization completed.
    -- Stationary point found.
 Normal termination of Gaussian 09 at Sat Oct 26 19:13:34 2024.
