 Gaussian 09, Revision A.01,
 Gaussian 09:  EM64L-G09RevA.01  8-May-2009

 ---------------------------------------------
 # opt freq=noraman hf/6-31G geom=connectivity
 ---------------------------------------------

 -------------------
 Title Card Required
 -------------------
 Symbolic Z-matrix:
 Charge =  0 Multiplicity = 1

 SCF Done:  E(RHF) =  -712.549223977     A.U. after   13 cycles
 SCF Done:  E(RHF) =  -712.560311488     A.U. after   14 cycles
 SCF Done:  E(RHF) =  -712.560933628     A.U. after   12 cycles
 SCF Done:  E(RHF) =  -712.560975740     A.U. after   11 cycles
 SCF Done:  E(RHF) =  -712.560977603     A.U. after   10 cycles
 Optimization completed.
    -- Stationary point found.
 Normal termination of Gaussian 09 at Sat Oct 26 20:12:21 2024.

 --------------------------------------------------------------
 #N Geom=AllCheck Guess=TCheck SCRF=Check GenChk RHF/6-31G Freq
 --------------------------------------------------------------

 Title Card Required
 -------------------
 Redundant internal coordinates taken from checkpoint file:
 3-base1.chk
 Charge =  0 Multiplicity = 1

                         Standard orientation:
 ---------------------------------------------------------------------
 Center     Atomic      Atomic             Coordinates (Angstroms)
 Number     Number       Type             X           Y           Z
 ---------------------------------------------------------------------
      1          6           0       -0.877332   -0.514629    0.000000
      2          6           0        0.000000    0.466918    0.000000
      3          6           0       -0.312477    1.890594    0.000000
      4          1           0       -1.358350    2.131603    0.000000
      5          6           0        0.605536    2.846209    0.000000
      6          1           0        1.654302    2.626519    0.000000
      7          1           0        0.323921    3.880190    0.000000
      8         17           0       -0.426332   -2.238531    0.000000
      9          1           0       -1.928699   -0.343751    0.000000
     10          9           0        1.340234    0.180658    0.000000
 ---------------------------------------------------------------------

 SCF Done:  E(RHF) =  -712.560977603     A.U. after    1 cycles

 The electronic state is 1-A'.
 Alpha  occ. eigenvalues -- -104.82972 -26.31692 -11.36676 -11.31841 -11.27369
 Alpha  occ. eigenvalues --  -11.26068 -10.56945  -8.03801  -8.03376  -8.03370
 Alpha  occ. eigenvalues --   -1.63063  -1.16923  -1.10895  -1.02419  -0.85516
 Alpha  occ. eigenvalues --   -0.80075  -0.74131  -0.69516  -0.68224  -0.64044
 Alpha  occ. eigenvalues --   -0.61204  -0.56596  -0.53469  -0.51530  -0.45972
 Alpha  occ. eigenvalues --   -0.45032  -0.34663
 Alpha virt. eigenvalues --    0.09462   0.17974   0.22362   0.24034   0.27511
 Alpha virt. eigenvalues --    0.29019   0.33132   0.39329   0.46377   0.48317
 Alpha virt. eigenvalues --    0.55063   0.60477   0.64151   0.64899   0.66767

 Mulliken atomic charges:
              1
     1  C   -0.531264
     2  C    0.552237
     3  C   -0.186741
     4  H    0.214205
     5  C   -0.339818
     6  H    0.213081
     7  H    0.183894
     8  Cl   0.085122
     9  H    0.245254
    10  F   -0.435972
 Sum of Mulliken atomic charges =   0.00000

 Dipole moment (field-independent basis, Debye):
    X=             -1.9698    Y=              3.1862    Z=              0.0000  Tot=              3.7460
 Quadrupole moment (field-independent basis, Debye-Ang):
   XX=            -39.9434   YY=            -39.2576   ZZ=            -44.1118
   XY=              0.1211   XZ=              0.0000   YZ=              0.0000

  Exact polarizability:  49.095  18.882  90.953   0.000   0.000  16.728
 Approx polarizability:  43.364  12.961  64.397   0.000   0.000  15.085

                     1                      2                      3
                    A"                     A'                     A"
 Frequencies --   113.5681               180.4730               248.2402
 Red. masses --     3.7875                 6.2508                 2.4781
 Frc consts  --     0.0288                 0.1200                 0.0900
 IR Inten    --     0.1497                 0.6455                 0.0511

                     4                      5                      6
                    A'                     A'                     A"
 Frequencies --   300.8673               434.9082               564.2834
 Red. masses --     6.6856                 6.2799                 2.2668
 Frc consts  --     0.3566                 0.6998                 0.4253
 IR Inten    --     1.2707                 9.1762                 0.0891

                     7                      8                      9
                    A'                     A"                     A'
 Frequencies --   673.3183               811.6759               852.6351
 Red. masses --     3.3766                 1.9260                 6.8203
 Frc consts  --     0.9019                 0.7476                 2.9213
 IR Inten    --    10.4543                 2.6672                39.2052

                    10                     11                     12
                    A'                     A"                     A"
 Frequencies --   932.1157               978.5577              1133.4684
 Red. masses --     5.7782                 1.4347                 1.0946
 Frc consts  --     2.9579                 0.8095                 0.8285
 IR Inten    --    46.6588                69.4473                93.1061

                    13                     14                     15
                    A'                     A"                     A'
 Frequencies --  1154.2668              1166.3267              1316.7253
 Red. masses --     1.5687                 1.4073                 1.5283
 Frc consts  --     1.2314                 1.1279                 1.5612
 IR Inten    --    26.6831                 8.6181                21.5348

                    16                     17                     18
                    A'                     A'                     A'
 Frequencies --  1452.6829              1482.3449              1603.9575
 Red. masses --     1.8783                 1.4147                 1.2496
 Frc consts  --     2.3353                 1.8315                 1.8941
 IR Inten    --    33.5684                 9.4111                 6.3446

                    19                     20                     21
                    A'                     A'                     A'
 Frequencies --  1830.9688              1923.5244              3351.3282
 Red. masses --     4.5169                 7.2946                 1.0616
 Frc consts  --     8.9218                15.9019                 7.0253
 IR Inten    --    11.8658                20.7164                 1.3889

                    22                     23                     24
                    A'                     A'                     A'
 Frequencies --  3373.0905              3446.9111              3476.3054
 Red. masses --     1.0952                 1.1163                 1.0955
 Frc consts  --     7.3416                 7.8143                 7.8001
 IR Inten    --     6.6675                 5.8373                19.9625

 - Thermochemistry -
 -------------------
 Temperature   298.150 Kelvin.  Pressure   1.00000 Atm.
 Atom     1 has atomic number  6 and mass  12.00000

 Molecular mass:   105.99856 amu.
 Principal axes and moments of inertia in atomic units:
                           1         2         3
     Eigenvalues --   183.276151285.510391468.78654
           X            0.20038   0.97972   0.00000
           Y            0.97972  -0.20038   0.00000
           Z            0.00000   0.00000   1.00000
 This molecule is an asymmetric top.
 Rotational symmetry number  1.
 Rotational temperatures (Kelvin)      0.47259     0.06738     0.05897
 Rotational constants (GHZ):           9.84711     1.40391     1.22873
 Zero-point vibrational energy     196202.8 (Joules/Mol)
                                   46.89359 (Kcal/Mol)
 Warning -- explicit consideration of   6 degrees of freedom as
           vibrations may cause significant error
 Vibrational temperatures:    163.40   259.66   357.16   432.88   625.74
          (Kelvin)            811.88   968.75  1167.82  1226.75  1341.10
                             1407.92  1630.81  1660.73  1678.08  1894.47
                             2090.08  2132.76  2307.73  2634.35  2767.52
                             4821.81  4853.12  4959.33  5001.62

 Zero-point correction=                           0.074730 (Hartree/Particle)
 Thermal correction to Energy=                    0.080668
 Thermal correction to Enthalpy=                  0.081612
 Thermal correction to Gibbs Free Energy=         0.044352
 Sum of electronic and zero-point Energies=           -712.486248
 Sum of electronic and thermal Energies=              -712.480309
 Sum of electronic and thermal Enthalpies=            -712.479365
 Sum of electronic and thermal Free Energies=         -712.516626

                     E (Thermal)             CV                S
                      KCal/Mol        Cal/Mol-Kelvin    Cal/Mol-Kelvin
 Total                   50.620             19.762             78.422
 Electronic               0.000              0.000              0.000
 Translational            0.889              2.981             39.892
 Rotational               0.889              2.981             27.339
 Vibrational             48.843             13.800             11.191
 Vibration     1          0.607              1.938              3.207
 Vibration     2          0.629              1.866              2.324
 Vibration     3          0.662              1.766              1.743
 Vibration     4          0.693              1.672              1.412
 Vibration     5          0.796              1.394              0.843
 Vibration     6          0.920              1.109              0.515

 Optimization completed.
    -- Stationary point found.
 Normal termination of Gaussian 09 at Sat Oct 26 20:12:24 2024.
