 Gaussian 09, Revision A.01,
 Gaussian 09:  EM64L-G09RevA.01  8-May-2009

 --------------------------------------------------
 # opt freq=noraman hf/6-31G(d,p) geom=connectivity
 --------------------------------------------------

 -------------------
 Title Card Required
 -------------------
 Symbolic Z-matrix:
 Charge =  0 Multiplicity = 1

 SCF Done:  E(RHF) =  -712.664359039     A.U. after   14 cycles
 SCF Done:  E(RHF) =  -712.676259149     A.U. after   14 cycles
 SCF Done:  E(RHF) =  -712.676678336     A.U. after   11 cycles
 SCF Done:  E(RHF) =  -712.676704116     A.U. after    9 cycles
 SCF Done:  E(RHF) =  -712.676704916     A.U. after    8 cycles
 Optimization completed.
    -- Stationary point found.

 1\1\GINC-MALLOS71\FOpt\RHF\6-31G(d,p)\C4H4Cl1F1\MARLIN\26-Oct-2024\0\\
 # opt freq=noraman hf/6-31G(d,p) geom=connectivity\\Title Card Require
 d\\0,1\C,-2.096323727,-1.6767415107,0.\C,-1.396652849,-0.5603525818,0.
 \C,0.0647506167,-0.4992230295,0.\H,0.5698194249,-1.4489281232,0.\C,0.7
 458592443,0.6319525917,0.\H,0.2553485981,1.5873843121,0.\H,1.820178638
 6,0.6279360501,0.\Cl,-3.8186710519,-1.7229199503,0.\H,-1.6156489603,-2
 .6323062983,0.\F,-2.0030592744,0.6161677399,0.\\Version=EM64L-G09RevA.
 01\State=1-A'\HF=-712.6767049\RMSD=9.950e-09\RMSF=3.316e-05\Dipole=1.1

 Normal termination of Gaussian 09 at Sat Oct 26 20:12:27 2024.

 -------------------------------------------------------------------
 #N Geom=AllCheck Guess=TCheck SCRF=Check GenChk RHF/6-31G(d,p) Freq
 -------------------------------------------------------------------

 Title Card Required
 -------------------
 Redundant internal coordinates taken from checkpoint file:
 3-base3.chk
 Charge =  0 Multiplicity = 1

                         Standard orientation:
 ---------------------------------------------------------------------
 Center     Atomic      Atomic             Coordinates (Angstroms)
 Number     Number       Type             X           Y           Z
 ---------------------------------------------------------------------
      1          6           0       -0.819710   -0.587821    0.000000
      2          6           0        0.000000    0.443654    0.000000
      3          6           0       -0.428970    1.842018    0.000000
      4          1           0       -1.492656    2.002037    0.000000
      5          6           0        0.410863    2.860913    0.000000
      6          1           0        1.475102    2.716528    0.000000
      7          1           0        0.049354    3.872589    0.000000
      8         17           0       -0.289754   -2.227260    0.000000
      9          1           0       -1.880798   -0.452755    0.000000
     10          9           0        1.311301    0.263604    0.000000
 ---------------------------------------------------------------------

 SCF Done:  E(RHF) =  -712.676704916     A.U. after    1 cycles

 The electronic state is 1-A'.
 Alpha  occ. eigenvalues -- -104.83107 -26.32598 -11.34695 -11.29553 -11.25980
 Alpha  occ. eigenvalues --  -11.24951 -10.56436  -8.03387  -8.03035  -8.03034
 Alpha  occ. eigenvalues --   -1.64566  -1.16638  -1.09830  -1.00898  -0.84628
 Alpha  occ. eigenvalues --   -0.80835  -0.74055  -0.70640  -0.68475  -0.63454
 Alpha  occ. eigenvalues --   -0.60751  -0.57028  -0.53232  -0.51328  -0.45470
 Alpha  occ. eigenvalues --   -0.43982  -0.33482
 Alpha virt. eigenvalues --    0.10901   0.21071   0.23217   0.25322   0.28070
 Alpha virt. eigenvalues --    0.29921   0.33934   0.40019   0.46047   0.48613
 Alpha virt. eigenvalues --    0.53180   0.58809   0.63293   0.63980   0.67408

 Mulliken atomic charges:
              1
     1  C   -0.375100
     2  C    0.522126
     3  C   -0.170736
     4  H    0.159810
     5  C   -0.271720
     6  H    0.162511
     7  H    0.146088
     8  Cl   0.001702
     9  H    0.191772
    10  F   -0.366453
 Sum of Mulliken atomic charges =   0.00000

 Dipole moment (field-independent basis, Debye):
    X=             -1.5343    Y=              2.5063    Z=              0.0000  Tot=              2.9386
 Quadrupole moment (field-independent basis, Debye-Ang):
   XX=            -38.9137   YY=            -38.7435   ZZ=            -43.6163
   XY=             -0.1894   XZ=              0.0000   YZ=              0.0000

  Exact polarizability:  48.062  15.757  92.402   0.000   0.000  21.464
 Approx polarizability:  44.443  10.894  67.350   0.000   0.000  23.023

                     1                      2                      3
                    A"                     A'                     A"
 Frequencies --   112.1114               182.5408               257.9108
 Red. masses --     3.8331                 6.0383                 2.4922
 Frc consts  --     0.0284                 0.1185                 0.0977
 IR Inten    --     0.0305                 0.8337                 0.0036

                     4                      5                      6
                    A'                     A'                     A"
 Frequencies --   302.4295               439.0227               569.3495
 Red. masses --     6.6118                 5.8849                 2.2268
 Frc consts  --     0.3563                 0.6683                 0.4253
 IR Inten    --     0.6517                 6.6648                 0.0286

                     7                      8                      9
                    A'                     A"                     A'
 Frequencies --   678.1526               801.8376               908.6256
 Red. masses --     3.3366                 2.1024                 6.6950
 Frc consts  --     0.9041                 0.7964                 3.2567
 IR Inten    --    12.3934                 2.1870                32.2585

                    10                     11                     12
                    A"                     A'                     A"
 Frequencies --   918.8581               967.3798              1100.1739
 Red. masses --     1.4041                 5.0869                 1.2889
 Frc consts  --     0.6985                 2.8047                 0.9191
 IR Inten    --    48.7223                56.5590                55.4992

                    13                     14                     15
                    A"                     A'                     A'
 Frequencies --  1121.8507              1138.5582              1309.1648
 Red. masses --     1.1483                 1.5245                 1.4326
 Frc consts  --     0.8515                 1.1644                 1.4467
 IR Inten    --    11.8798                21.6248                28.9996

                    16                     17                     18
                    A'                     A'                     A'
 Frequencies --  1436.5470              1489.7032              1577.5459
 Red. masses --     1.4205                 2.1026                 1.3218
 Frc consts  --     1.7271                 2.7492                 1.9381
 IR Inten    --    10.8004                54.1046                 4.9263

                    19                     20                     21
                    A'                     A'                     A'
 Frequencies --  1832.9342              1917.4593              3333.7941
 Red. masses --     4.8568                 6.9144                 1.0603
 Frc consts  --     9.6138                14.9781                 6.9431
 IR Inten    --    22.9580                24.0333                 2.9263

                    22                     23                     24
                    A'                     A'                     A'
 Frequencies --  3359.6164              3426.0665              3429.0472
 Red. masses --     1.0959                 1.1175                 1.0945
 Frc consts  --     7.2877                 7.7284                 7.5826
 IR Inten    --     5.5600                 4.6954                19.2894

 - Thermochemistry -
 -------------------
 Temperature   298.150 Kelvin.  Pressure   1.00000 Atm.
 Atom     1 has atomic number  6 and mass  12.00000

 Molecular mass:   105.99856 amu.
 Principal axes and moments of inertia in atomic units:
                           1         2         3
     Eigenvalues --   178.216901257.071301435.28820
           X            0.14003   0.99015   0.00000
           Y            0.99015  -0.14003   0.00000
           Z            0.00000   0.00000   1.00000
 This molecule is an asymmetric top.
 Rotational symmetry number  1.
 Rotational temperatures (Kelvin)      0.48600     0.06890     0.06035
 Rotational constants (GHZ):          10.12666     1.43567     1.25741
 Zero-point vibrational energy     195055.2 (Joules/Mol)
                                   46.61931 (Kcal/Mol)
 Warning -- explicit consideration of   6 degrees of freedom as
           vibrations may cause significant error
 Vibrational temperatures:    161.30   262.64   371.08   435.13   631.65
          (Kelvin)            819.17   975.71  1153.66  1307.31  1322.03
                             1391.84  1582.90  1614.09  1638.13  1883.59
                             2066.87  2143.35  2269.73  2637.18  2758.79
                             4796.58  4833.73  4929.34  4933.63

 Zero-point correction=                           0.074293 (Hartree/Particle)
 Thermal correction to Energy=                    0.080210
 Thermal correction to Enthalpy=                  0.081154
 Thermal correction to Gibbs Free Energy=         0.043972
 Sum of electronic and zero-point Energies=           -712.602412
 Sum of electronic and thermal Energies=              -712.596495
 Sum of electronic and thermal Enthalpies=            -712.595551
 Sum of electronic and thermal Free Energies=         -712.632733

                     E (Thermal)             CV                S
                      KCal/Mol        Cal/Mol-Kelvin    Cal/Mol-Kelvin
 Total                   50.333             19.763             78.257
 Electronic               0.000              0.000              0.000
 Translational            0.889              2.981             39.892
 Rotational               0.889              2.981             27.266
 Vibrational             48.555             13.802             11.099
 Vibration     1          0.607              1.939              3.232
 Vibration     2          0.630              1.864              2.302
 Vibration     3          0.667              1.749              1.676
 Vibration     4          0.694              1.669              1.403
 Vibration     5          0.799              1.385              0.830
 Vibration     6          0.925              1.098              0.505

 Optimization completed.
    -- Stationary point found.

 1\1\GINC-MALLOS71\Freq\RHF\6-31G(d,p)\C4H4Cl1F1\MARLIN\26-Oct-2024\0\\
 #N Geom=AllCheck Guess=TCheck SCRF=Check GenChk RHF/6-31G(d,p) Freq\\T
 itle Card Required\\0,1\C,-2.096323727,-1.6767415107,0.\C,-1.396652849
 ,-0.5603525818,0.\C,0.0647506167,-0.4992230295,0.\H,0.5698194249,-1.44
 89281232,0.\C,0.7458592443,0.6319525917,0.\H,0.2553485981,1.5873843121
 ,0.\H,1.8201786386,0.6279360501,0.\Cl,-3.8186710519,-1.7229199503,0.\H
 ,-1.6156489603,-2.6323062983,0.\F,-2.0030592744,0.6161677399,0.\\Versi
 on=EM64L-G09RevA.01\State=1-A'\HF=-712.6767049\RMSD=1.969e-09\RMSF=3.3

 Normal termination of Gaussian 09 at Sat Oct 26 20:12:32 2024.
