 Gaussian 09, Revision A.01,
 Gaussian 09:  EM64L-G09RevA.01  8-May-2009

 -----------------------------------------------
 # opt freq=noraman hf/cc-pvtz geom=connectivity
 -----------------------------------------------

 -------------------
 Title Card Required
 -------------------
 Symbolic Z-matrix:
 Charge =  0 Multiplicity = 1

 SCF Done:  E(RHF) =  -712.789228394     A.U. after   13 cycles
 SCF Done:  E(RHF) =  -712.802148598     A.U. after   14 cycles
 SCF Done:  E(RHF) =  -712.802527373     A.U. after   10 cycles
 SCF Done:  E(RHF) =  -712.802547207     A.U. after    8 cycles
 Optimization completed.
    -- Stationary point found.
 Normal termination of Gaussian 09 at Sat Oct 26 20:14:43 2024.

 ----------------------------------------------------------------
 #N Geom=AllCheck Guess=TCheck SCRF=Check GenChk RHF/CC-pVTZ Freq
 ----------------------------------------------------------------

 Title Card Required
 -------------------
 Redundant internal coordinates taken from checkpoint file:
 3-base5.chk
 Charge =  0 Multiplicity = 1

                         Standard orientation:
 ---------------------------------------------------------------------
 Center     Atomic      Atomic             Coordinates (Angstroms)
 Number     Number       Type             X           Y           Z
 ---------------------------------------------------------------------
      1          6           0       -0.798477   -0.603275    0.000000
      2          6           0        0.000000    0.441482    0.000000
      3          6           0       -0.469112    1.825155    0.000000
      4          1           0       -1.535302    1.949377    0.000000
      5          6           0        0.331896    2.870790    0.000000
      6          1           0        1.398793    2.765183    0.000000
      7          1           0       -0.067433    3.865953    0.000000
      8         17           0       -0.239615   -2.231057    0.000000
      9          1           0       -1.859118   -0.485820    0.000000
     10          9           0        1.305631    0.292040    0.000000
 ---------------------------------------------------------------------

 SCF Done:  E(RHF) =  -712.802547207     A.U. after    1 cycles

 The electronic state is 1-A'.
 Alpha  occ. eigenvalues -- -104.84468 -26.32402 -11.34301 -11.29379 -11.25725
 Alpha  occ. eigenvalues --  -11.24490 -10.56949  -8.03644  -8.03443  -8.03442
 Alpha  occ. eigenvalues --   -1.65522  -1.16846  -1.10094  -1.01181  -0.84973
 Alpha  occ. eigenvalues --   -0.81517  -0.74655  -0.71570  -0.68931  -0.63874
 Alpha  occ. eigenvalues --   -0.61272  -0.57229  -0.53427  -0.51724  -0.45787
 Alpha  occ. eigenvalues --   -0.44336  -0.33864
 Alpha virt. eigenvalues --    0.09846   0.13971   0.16466   0.19613   0.20390
 Alpha virt. eigenvalues --    0.22078   0.22472   0.31008   0.33265   0.35775
 Alpha virt. eigenvalues --    0.38536   0.41112   0.43523   0.46047   0.46614

 Mulliken atomic charges:
              1
     1  C   -0.193998
     2  C    0.340891
     3  C   -0.173427
     4  H    0.167531
     5  C   -0.317217
     6  H    0.164936
     7  H    0.149770
     8  Cl  -0.119808
     9  H    0.186029
    10  F   -0.204708
 Sum of Mulliken atomic charges =   0.00000

 Dipole moment (field-independent basis, Debye):
    X=             -1.5712    Y=              2.1995    Z=              0.0000  Tot=              2.7030
 Quadrupole moment (field-independent basis, Debye-Ang):
   XX=            -39.2015   YY=            -38.9584   ZZ=            -43.9719
   XY=             -0.2023   XZ=              0.0000   YZ=              0.0000

  Exact polarizability:  51.784  14.331 100.484   0.000   0.000  32.501
 Approx polarizability:  50.066   9.304  73.314   0.000   0.000  36.338

                     1                      2                      3
                    A"                     A'                     A"
 Frequencies --   114.1185               181.9988               265.0542
 Red. masses --     3.9147                 6.0398                 2.4544
 Frc consts  --     0.0300                 0.1179                 0.1016
 IR Inten    --     0.0692                 0.9713                 0.0001

                     4                      5                      6
                    A'                     A'                     A"
 Frequencies --   300.5335               435.6259               573.7903
 Red. masses --     6.5525                 5.9159                 2.1823
 Frc consts  --     0.3487                 0.6614                 0.4233
 IR Inten    --     0.4139                 6.4840                 1.2059

                     7                      8                      9
                    A'                     A"                     A'
 Frequencies --   678.8279               810.3227               901.1044
 Red. masses --     3.3220                 2.0281                 6.6637
 Frc consts  --     0.9019                 0.7846                 3.1880
 IR Inten    --    13.5982                 0.4899                35.9115

                    10                     11                     12
                    A"                     A'                     A"
 Frequencies --   913.7882               960.1380              1092.7339
 Red. masses --     1.4473                 5.1886                 1.2590
 Frc consts  --     0.7121                 2.8182                 0.8857
 IR Inten    --    39.9559                50.5696                61.6677

                    13                     14                     15
                    A"                     A'                     A'
 Frequencies --  1119.9423              1135.8122              1294.7739
 Red. masses --     1.1807                 1.5289                 1.4270
 Frc consts  --     0.8725                 1.1621                 1.4095
 IR Inten    --     7.2538                20.1787                29.5913

                    16                     17                     18
                    A'                     A'                     A'
 Frequencies --  1430.1417              1475.7206              1569.7675
 Red. masses --     1.4293                 2.1482                 1.3107
 Frc consts  --     1.7224                 2.7563                 1.9029
 IR Inten    --     9.9065                60.8178                 4.3435

                    19                     20                     21
                    A'                     A'                     A'
 Frequencies --  1806.1791              1887.7853              3302.5344
 Red. masses --     4.7645                 6.7641                 1.0597
 Frc consts  --     9.1577                14.2024                 6.8097
 IR Inten    --    31.9619                21.9610                 2.6708

                    22                     23                     24
                    A'                     A'                     A'
 Frequencies --  3331.2540              3390.6693              3400.7972
 Red. masses --     1.0953                 1.1172                 1.0942
 Frc consts  --     7.1617                 7.5676                 7.4560
 IR Inten    --     3.5120                 4.1727                17.1848

 - Thermochemistry -
 -------------------
 Temperature   298.150 Kelvin.  Pressure   1.00000 Atm.
 Atom     1 has atomic number  6 and mass  12.00000

 Molecular mass:   105.99856 amu.
 Principal axes and moments of inertia in atomic units:
                           1         2         3
     Eigenvalues --   177.494451254.223201431.71765
           X            0.11586   0.99327   0.00000
           Y            0.99327  -0.11586   0.00000
           Z            0.00000   0.00000   1.00000
 This molecule is an asymmetric top.
 Rotational symmetry number  1.
 Rotational temperatures (Kelvin)      0.48798     0.06906     0.06050
 Rotational constants (GHZ):          10.16787     1.43893     1.26054
 Zero-point vibrational energy     193636.0 (Joules/Mol)
                                   46.28012 (Kcal/Mol)
 Warning -- explicit consideration of   6 degrees of freedom as
           vibrations may cause significant error
 Vibrational temperatures:    164.19   261.86   381.35   432.40   626.77
          (Kelvin)            825.56   976.68  1165.87  1296.49  1314.74
                             1381.42  1572.20  1611.35  1634.18  1862.89
                             2057.65  2123.23  2258.54  2598.69  2716.10
                             4751.60  4792.93  4878.41  4892.98

 Zero-point correction=                           0.073752 (Hartree/Particle)
 Thermal correction to Energy=                    0.079663
 Thermal correction to Enthalpy=                  0.080607
 Thermal correction to Gibbs Free Energy=         0.043455
 Sum of electronic and zero-point Energies=           -712.728795
 Sum of electronic and thermal Energies=              -712.722884
 Sum of electronic and thermal Enthalpies=            -712.721940
 Sum of electronic and thermal Free Energies=         -712.759092

                     E (Thermal)             CV                S
                      KCal/Mol        Cal/Mol-Kelvin    Cal/Mol-Kelvin
 Total                   49.989             19.791             78.193
 Electronic               0.000              0.000              0.000
 Translational            0.889              2.981             39.892
 Rotational               0.889              2.981             27.258
 Vibrational             48.212             13.829             11.044
 Vibration     1          0.607              1.938              3.198
 Vibration     2          0.630              1.864              2.308
 Vibration     3          0.671              1.737              1.628
 Vibration     4          0.693              1.673              1.414
 Vibration     5          0.796              1.393              0.840
 Vibration     6          0.930              1.088              0.497

 Optimization completed.
    -- Stationary point found.
 Normal termination of Gaussian 09 at Sat Oct 26 20:15:31 2024.
