 Gaussian 09, Revision A.01,
 Gaussian 09:  EM64L-G09RevA.01  8-May-2009

 -----------------------------------------------
 # opt freq=noraman hf/cc-pvdz geom=connectivity
 -----------------------------------------------

 -------------------
 Title Card Required
 -------------------
 Symbolic Z-matrix:
 Charge =  0 Multiplicity = 1

 SCF Done:  E(RHF) =  -712.698234139     A.U. after   14 cycles
 SCF Done:  E(RHF) =  -712.709365768     A.U. after   14 cycles
 SCF Done:  E(RHF) =  -712.709759850     A.U. after   11 cycles
 SCF Done:  E(RHF) =  -712.709783253     A.U. after    9 cycles
 Optimization completed.
    -- Stationary point found.
 Normal termination of Gaussian 09 at Sat Oct 26 20:13:22 2024.

 ----------------------------------------------------------------
 #N Geom=AllCheck Guess=TCheck SCRF=Check GenChk RHF/CC-pVDZ Freq
 ----------------------------------------------------------------

 Title Card Required
 -------------------
 Redundant internal coordinates taken from checkpoint file:
 3-base4.chk
 Charge =  0 Multiplicity = 1

                         Standard orientation:
 ---------------------------------------------------------------------
 Center     Atomic      Atomic             Coordinates (Angstroms)
 Number     Number       Type             X           Y           Z
 ---------------------------------------------------------------------
      1          6           0       -0.815253   -0.595318    0.000000
      2          6           0        0.000000    0.444220    0.000000
      3          6           0       -0.448018    1.837357    0.000000
      4          1           0       -1.520546    1.982115    0.000000
      5          6           0        0.378425    2.872225    0.000000
      6          1           0        1.451679    2.741265    0.000000
      7          1           0       -0.003462    3.883984    0.000000
      8         17           0       -0.266824   -2.234339    0.000000
      9          1           0       -1.884391   -0.467146    0.000000
     10          9           0        1.311312    0.276961    0.000000
 ---------------------------------------------------------------------

 SCF Done:  E(RHF) =  -712.709783253     A.U. after    1 cycles

 The electronic state is 1-A'.
 Alpha  occ. eigenvalues -- -104.83951 -26.32681 -11.34939 -11.30148 -11.26594
 Alpha  occ. eigenvalues --  -11.25743 -10.56594  -8.03366  -8.03005  -8.03002
 Alpha  occ. eigenvalues --   -1.65369  -1.16691  -1.10022  -1.01089  -0.84805
 Alpha  occ. eigenvalues --   -0.81106  -0.74207  -0.71026  -0.68555  -0.63484
 Alpha  occ. eigenvalues --   -0.60912  -0.56949  -0.53267  -0.51419  -0.45577
 Alpha  occ. eigenvalues --   -0.44162  -0.33673
 Alpha virt. eigenvalues --    0.10231   0.17709   0.20039   0.22768   0.23983
 Alpha virt. eigenvalues --    0.24030   0.27467   0.39328   0.41147   0.44113
 Alpha virt. eigenvalues --    0.53567   0.60296   0.63073   0.64453   0.67400

 Mulliken atomic charges:
              1
     1  C   -0.170483
     2  C    0.396325
     3  C   -0.163751
     4  H    0.038659
     5  C    0.016691
     6  H    0.066201
     7  H    0.060121
     8  Cl  -0.070378
     9  H    0.081861
    10  F   -0.255245
 Sum of Mulliken atomic charges =   0.00000

 Dipole moment (field-independent basis, Debye):
    X=             -1.6000    Y=              2.3363    Z=              0.0000  Tot=              2.8317
 Quadrupole moment (field-independent basis, Debye-Ang):
   XX=            -39.2093   YY=            -38.7603   ZZ=            -43.9422
   XY=             -0.1566   XZ=              0.0000   YZ=              0.0000

  Exact polarizability:  48.425  15.329  95.185   0.000   0.000  22.962
 Approx polarizability:  45.580  10.197  69.360   0.000   0.000  25.571

                     1                      2                      3
                    A"                     A'                     A"
 Frequencies --   113.8750               180.7130               262.2808
 Red. masses --     3.9275                 6.0952                 2.4752
 Frc consts  --     0.0300                 0.1173                 0.1003
 IR Inten    --     0.0626                 0.9177                 0.0001

                     4                      5                      6
                    A'                     A'                     A"
 Frequencies --   299.2674               436.7325               571.5356
 Red. masses --     6.4977                 5.8827                 2.1276
 Frc consts  --     0.3429                 0.6611                 0.4095
 IR Inten    --     0.5604                 7.1765                 0.3754

                     7                      8                      9
                    A'                     A"                     A'
 Frequencies --   674.5114               807.4979               897.6823
 Red. masses --     3.3148                 2.0345                 6.5845
 Frc consts  --     0.8886                 0.7816                 3.1262
 IR Inten    --    13.0244                 0.5715                36.8421

                    10                     11                     12
                    A"                     A'                     A"
 Frequencies --   903.1649               957.8523              1079.2689
 Red. masses --     1.4656                 5.0591                 1.3081
 Frc consts  --     0.7044                 2.7348                 0.8978
 IR Inten    --    44.4736                59.1669                46.2893

                    13                     14                     15
                    A"                     A'                     A'
 Frequencies --  1109.9272              1125.4807              1285.3229
 Red. masses --     1.1389                 1.5262                 1.3565
 Frc consts  --     0.8266                 1.1390                 1.3203
 IR Inten    --    14.5742                22.7906                27.5018

                    16                     17                     18
                    A'                     A'                     A'
 Frequencies --  1419.5952              1466.3544              1555.0763
 Red. masses --     1.3792                 2.2388                 1.3491
 Frc consts  --     1.6376                 2.8362                 1.9222
 IR Inten    --     7.8809                65.9127                 5.8965

                    19                     20                     21
                    A'                     A'                     A'
 Frequencies --  1821.5630              1908.6200              3323.4690
 Red. masses --     5.2180                 7.2579                 1.0604
 Frc consts  --    10.2009                15.5776                 6.9010
 IR Inten    --    25.7788                24.2244                 1.9838

                    22                     23                     24
                    A'                     A'                     A'
 Frequencies --  3355.4102              3422.3324              3423.1686
 Red. masses --     1.0963                 1.1014                 1.1111
 Frc consts  --     7.2724                 7.6007                 7.6710
 IR Inten    --     3.7549                 9.8017                12.0073

 - Thermochemistry -
 -------------------
 Temperature   298.150 Kelvin.  Pressure   1.00000 Atm.
 Atom     1 has atomic number  6 and mass  12.00000

 Molecular mass:   105.99856 amu.
 Principal axes and moments of inertia in atomic units:
                           1         2         3
     Eigenvalues --   179.057281261.465171440.52245
           X            0.12931   0.99160   0.00000
           Y            0.99160  -0.12931   0.00000
           Z            0.00000   0.00000   1.00000
 This molecule is an asymmetric top.
 Rotational symmetry number  1.
 Rotational temperatures (Kelvin)      0.48372     0.06866     0.06013
 Rotational constants (GHZ):          10.07913     1.43067     1.25284
 Zero-point vibrational energy     193799.2 (Joules/Mol)
                                   46.31913 (Kcal/Mol)
 Warning -- explicit consideration of   6 degrees of freedom as
           vibrations may cause significant error
 Vibrational temperatures:    163.84   260.01   377.36   430.58   628.36
          (Kelvin)            822.31   970.47  1161.81  1291.56  1299.45
                             1378.13  1552.83  1596.94  1619.31  1849.29
                             2042.48  2109.75  2237.41  2620.82  2746.07
                             4781.72  4827.68  4923.97  4925.17

 Zero-point correction=                           0.073814 (Hartree/Particle)
 Thermal correction to Energy=                    0.079744
 Thermal correction to Enthalpy=                  0.080688
 Thermal correction to Gibbs Free Energy=         0.043492
 Sum of electronic and zero-point Energies=           -712.635969
 Sum of electronic and thermal Energies=              -712.630040
 Sum of electronic and thermal Enthalpies=            -712.629095
 Sum of electronic and thermal Free Energies=         -712.666291

                     E (Thermal)             CV                S
                      KCal/Mol        Cal/Mol-Kelvin    Cal/Mol-Kelvin
 Total                   50.040             19.877             78.284
 Electronic               0.000              0.000              0.000
 Translational            0.889              2.981             39.892
 Rotational               0.889              2.981             27.278
 Vibrational             48.262             13.915             11.115
 Vibration     1          0.607              1.938              3.202
 Vibration     2          0.630              1.866              2.321
 Vibration     3          0.670              1.742              1.647
 Vibration     4          0.692              1.675              1.421
 Vibration     5          0.797              1.390              0.837
 Vibration     6          0.928              1.093              0.501

 Optimization completed.
    -- Stationary point found.
 Normal termination of Gaussian 09 at Sat Oct 26 20:13:28 2024.
