 Gaussian 09, Revision A.01,
 Gaussian 09:  EM64L-G09RevA.01  8-May-2009

 ------------------------------------------------
 # opt freq=noraman hf/6-31G(d) geom=connectivity
 ------------------------------------------------

 -------------------
 Title Card Required
 -------------------
 Symbolic Z-matrix:
 Charge =  0 Multiplicity = 1

 SCF Done:  E(RHF) =  -712.657160262     A.U. after   14 cycles
 SCF Done:  E(RHF) =  -712.669092320     A.U. after   14 cycles
 SCF Done:  E(RHF) =  -712.669512835     A.U. after   11 cycles
 SCF Done:  E(RHF) =  -712.669538947     A.U. after    9 cycles
 SCF Done:  E(RHF) =  -712.669539731     A.U. after    9 cycles
 Optimization completed.
    -- Stationary point found.
 Normal termination of Gaussian 09 at Sat Oct 26 20:12:24 2024.

 -----------------------------------------------------------------
 #N Geom=AllCheck Guess=TCheck SCRF=Check GenChk RHF/6-31G(d) Freq
 -----------------------------------------------------------------

 Title Card Required
 -------------------
 Redundant internal coordinates taken from checkpoint file:
 3-base2.chk
 Charge =  0 Multiplicity = 1

                         Standard orientation:
 ---------------------------------------------------------------------
 Center     Atomic      Atomic             Coordinates (Angstroms)
 Number     Number       Type             X           Y           Z
 ---------------------------------------------------------------------
      1          6           0       -0.817114   -0.590105    0.000000
      2          6           0        0.000000    0.443543    0.000000
      3          6           0       -0.433468    1.840634    0.000000
      4          1           0       -1.497404    1.996169    0.000000
      5          6           0        0.401782    2.863764    0.000000
      6          1           0        1.466675    2.727650    0.000000
      7          1           0        0.036582    3.873777    0.000000
      8         17           0       -0.284682   -2.228681    0.000000
      9          1           0       -1.878293   -0.458484    0.000000
     10          9           0        1.311648    0.266829    0.000000
 ---------------------------------------------------------------------

 SCF Done:  E(RHF) =  -712.669539731     A.U. after    1 cycles

 The electronic state is 1-A'.
 Alpha  occ. eigenvalues -- -104.83131 -26.32607 -11.34710 -11.29554 -11.25977
 Alpha  occ. eigenvalues --  -11.24932 -10.56459  -8.03410  -8.03058  -8.03057
 Alpha  occ. eigenvalues --   -1.64578  -1.16656  -1.09831  -1.00908  -0.84663
 Alpha  occ. eigenvalues --   -0.80882  -0.74092  -0.70651  -0.68541  -0.63550
 Alpha  occ. eigenvalues --   -0.60813  -0.57104  -0.53321  -0.51343  -0.45495
 Alpha  occ. eigenvalues --   -0.43983  -0.33479
 Alpha virt. eigenvalues --    0.10955   0.21064   0.23223   0.25410   0.28085
 Alpha virt. eigenvalues --    0.29933   0.33995   0.40075   0.46091   0.48687
 Alpha virt. eigenvalues --    0.53217   0.58871   0.63493   0.63970   0.67411

 Mulliken atomic charges:
              1
     1  C   -0.438504
     2  C    0.538811
     3  C   -0.218074
     4  H    0.213302
     5  C   -0.386086
     6  H    0.213973
     7  H    0.196449
     8  Cl   0.002874
     9  H    0.243549
    10  F   -0.366295
 Sum of Mulliken atomic charges =   0.00000

 Dipole moment (field-independent basis, Debye):
    X=             -1.5367    Y=              2.4950    Z=              0.0000  Tot=              2.9303
 Quadrupole moment (field-independent basis, Debye-Ang):
   XX=            -38.9360   YY=            -38.7234   ZZ=            -43.6490
   XY=             -0.1662   XZ=              0.0000   YZ=              0.0000

  Exact polarizability:  47.578  15.546  92.188   0.000   0.000  21.097
 Approx polarizability:  43.935  10.747  67.103   0.000   0.000  22.480

                     1                      2                      3
                    A"                     A'                     A"
 Frequencies --   112.1484               182.5157               257.8631
 Red. masses --     3.8246                 6.0546                 2.4920
 Frc consts  --     0.0283                 0.1188                 0.0976
 IR Inten    --     0.0334                 0.8412                 0.0027

                     4                      5                      6
                    A'                     A'                     A"
 Frequencies --   302.7136               439.2840               569.6688
 Red. masses --     6.6472                 5.9008                 2.2296
 Frc consts  --     0.3589                 0.6709                 0.4263
 IR Inten    --     0.6311                 6.5671                 0.0213

                     7                      8                      9
                    A'                     A"                     A'
 Frequencies --   678.9211               803.3349               909.4794
 Red. masses --     3.3457                 2.1072                 6.7184
 Frc consts  --     0.9086                 0.8012                 3.2742
 IR Inten    --    12.4191                 2.3487                31.9623

                    10                     11                     12
                    A"                     A'                     A"
 Frequencies --   921.6007               968.1710              1101.6555
 Red. masses --     1.4016                 5.1248                 1.3047
 Frc consts  --     0.7014                 2.8303                 0.9329
 IR Inten    --    49.5965                56.6084                54.3599

                    13                     14                     15
                    A"                     A'                     A'
 Frequencies --  1125.7046              1143.0910              1315.7805
 Red. masses --     1.1361                 1.5261                 1.4597
 Frc consts  --     0.8482                 1.1749                 1.4890
 IR Inten    --    14.7295                22.1528                29.2157

                    16                     17                     18
                    A'                     A'                     A'
 Frequencies --  1444.0738              1496.1995              1588.5600
 Red. masses --     1.4330                 2.0662                 1.3098
 Frc consts  --     1.7607                 2.7252                 1.9474
 IR Inten    --    11.4045                52.3044                 4.6481

                    19                     20                     21
                    A'                     A'                     A'
 Frequencies --  1835.3995              1918.9451              3356.2494
 Red. masses --     4.7287                 6.7876                 1.0606
 Frc consts  --     9.3854                14.7262                 7.0388
 IR Inten    --    22.6764                23.4279                 4.0690

                    22                     23                     24
                    A'                     A'                     A'
 Frequencies --  3378.0932              3444.8058              3449.4335
 Red. masses --     1.0950                 1.1176                 1.0942
 Frc consts  --     7.3621                 7.8138                 7.6709
 IR Inten    --     5.9735                 5.7859                16.6465

 - Thermochemistry -
 -------------------
 Temperature   298.150 Kelvin.  Pressure   1.00000 Atm.
 Atom     1 has atomic number  6 and mass  12.00000

 Molecular mass:   105.99856 amu.
 Principal axes and moments of inertia in atomic units:
                           1         2         3
     Eigenvalues --   178.263471257.994501436.25796
           X            0.13742   0.99051   0.00000
           Y            0.99051  -0.13742   0.00000
           Z            0.00000   0.00000   1.00000
 This molecule is an asymmetric top.
 Rotational symmetry number  1.
 Rotational temperatures (Kelvin)      0.48588     0.06885     0.06031
 Rotational constants (GHZ):          10.12401     1.43462     1.25656
 Zero-point vibrational energy     195850.8 (Joules/Mol)
                                   46.80946 (Kcal/Mol)
 Warning -- explicit consideration of   6 degrees of freedom as
           vibrations may cause significant error
 Vibrational temperatures:    161.36   262.60   371.01   435.54   632.03
          (Kelvin)            819.63   976.81  1155.82  1308.54  1325.98
                             1392.98  1585.03  1619.64  1644.65  1893.11
                             2077.70  2152.69  2285.58  2640.73  2760.93
                             4828.89  4860.32  4956.30  4962.96

 Zero-point correction=                           0.074596 (Hartree/Particle)
 Thermal correction to Energy=                    0.080509
 Thermal correction to Enthalpy=                  0.081453
 Thermal correction to Gibbs Free Energy=         0.044276
 Sum of electronic and zero-point Energies=           -712.594944
 Sum of electronic and thermal Energies=              -712.589031
 Sum of electronic and thermal Enthalpies=            -712.588086
 Sum of electronic and thermal Free Energies=         -712.625264

                     E (Thermal)             CV                S
                      KCal/Mol        Cal/Mol-Kelvin    Cal/Mol-Kelvin
 Total                   50.520             19.734             78.246
 Electronic               0.000              0.000              0.000
 Translational            0.889              2.981             39.892
 Rotational               0.889              2.981             27.268
 Vibrational             48.743             13.773             11.087
 Vibration     1          0.607              1.939              3.231
 Vibration     2          0.630              1.864              2.303
 Vibration     3          0.667              1.749              1.676
 Vibration     4          0.694              1.669              1.402
 Vibration     5          0.799              1.385              0.829
 Vibration     6          0.926              1.097              0.505

 Optimization completed.
    -- Stationary point found.
 Normal termination of Gaussian 09 at Sat Oct 26 20:12:28 2024.
