 Gaussian 09, Revision A.01,
 Gaussian 09:  EM64L-G09RevA.01  8-May-2009

 --------------------------------------------------
 # opt freq=noraman hf/6-31G(d,p) geom=connectivity
 --------------------------------------------------

 -------------------
 Title Card Required
 -------------------
 Symbolic Z-matrix:
 Charge =  0 Multiplicity = 1

 SCF Done:  E(RHF) =  -712.659103466     A.U. after   14 cycles
 SCF Done:  E(RHF) =  -712.672509834     A.U. after   14 cycles
 SCF Done:  E(RHF) =  -712.672971171     A.U. after   11 cycles
 SCF Done:  E(RHF) =  -712.673014273     A.U. after   10 cycles
 SCF Done:  E(RHF) =  -712.673015017     A.U. after    8 cycles
 Optimization completed.
    -- Stationary point found.

 1\1\GINC-MALLOS66\FOpt\RHF\6-31G(d,p)\C4H4Cl1F1\MARLIN\26-Oct-2024\0\\
 # opt freq=noraman hf/6-31G(d,p) geom=connectivity\\Title Card Require
 d\\0,1\C,-2.0840120753,-1.6606964701,0.\C,-1.3944356522,-0.5421186029,
 0.\C,0.0703490078,-0.5008828712,0.\H,0.5817723426,-1.4471029187,0.\C,0
 .7632455724,0.6245941227,0.\H,0.2841827715,1.5888056386,0.\H,1.8378624
 333,0.617301584,0.\Cl,-3.79710485,-1.7742010177,0.\F,-1.5174883993,-2.
 8508014665,0.\H,-1.9397315108,0.3825434018,0.\\Version=EM64L-G09RevA.0
 1\State=1-A'\HF=-712.673015\RMSD=3.571e-09\RMSF=3.029e-05\Dipole=0.328

 Normal termination of Gaussian 09 at Sat Oct 26 20:14:24 2024.

 -------------------------------------------------------------------
 #N Geom=AllCheck Guess=TCheck SCRF=Check GenChk RHF/6-31G(d,p) Freq
 -------------------------------------------------------------------

 Title Card Required
 -------------------
 Redundant internal coordinates taken from checkpoint file:
 4-base3.chk
 Charge =  0 Multiplicity = 1

                         Standard orientation:
 ---------------------------------------------------------------------
 Center     Atomic      Atomic             Coordinates (Angstroms)
 Number     Number       Type             X           Y           Z
 ---------------------------------------------------------------------
      1          6           0        0.000000    0.548397    0.000000
      2          6           0        0.201583   -0.750100    0.000000
      3          6           0       -0.885858   -1.732325    0.000000
      4          1           0       -1.889114   -1.344557    0.000000
      5          6           0       -0.682322   -3.038226    0.000000
      6          1           0        0.307998   -3.460686    0.000000
      7          1           0       -1.504478   -3.730261    0.000000
      8         17           0        1.229408    1.746783    0.000000
      9          9           0       -1.203486    1.085912    0.000000
     10          1           0        1.216611   -1.099481    0.000000
 ---------------------------------------------------------------------

 SCF Done:  E(RHF) =  -712.673015017     A.U. after    1 cycles

 The electronic state is 1-A'.
 Alpha  occ. eigenvalues -- -104.84840 -26.34031 -11.38960 -11.25589 -11.25021
 Alpha  occ. eigenvalues --  -11.23620 -10.58276  -8.05223  -8.04865  -8.04859
 Alpha  occ. eigenvalues --   -1.66218  -1.17780  -1.09817  -1.00798  -0.84618
 Alpha  occ. eigenvalues --   -0.79463  -0.74273  -0.72233  -0.69972  -0.62009
 Alpha  occ. eigenvalues --   -0.60354  -0.57049  -0.51948  -0.51762  -0.47975
 Alpha  occ. eigenvalues --   -0.44453  -0.32983
 Alpha virt. eigenvalues --    0.12041   0.20323   0.24748   0.25809   0.27488
 Alpha virt. eigenvalues --    0.30539   0.33023   0.38792   0.43806   0.50656
 Alpha virt. eigenvalues --    0.53511   0.56095   0.61414   0.62310   0.65995

 Mulliken atomic charges:
              1
     1  C    0.276681
     2  C   -0.188079
     3  C   -0.095026
     4  H    0.162049
     5  C   -0.289314
     6  H    0.130519
     7  H    0.140145
     8  Cl   0.022962
     9  F   -0.336823
    10  H    0.176886
 Sum of Mulliken atomic charges =   0.00000

 Dipole moment (field-independent basis, Debye):
    X=              0.3168    Y=             -1.6565    Z=              0.0000  Tot=              1.6865
 Quadrupole moment (field-independent basis, Debye-Ang):
   XX=            -39.7979   YY=            -39.2554   ZZ=            -43.5865
   XY=              0.6110   XZ=              0.0000   YZ=              0.0000

  Exact polarizability:  45.605  10.539  94.761   0.000   0.000  21.626
 Approx polarizability:  40.950   3.881  70.599   0.000   0.000  23.212

                     1                      2                      3
                    A"                     A'                     A"
 Frequencies --   126.5267               175.2867               221.9419
 Red. masses --     3.1095                 5.0368                 2.1916
 Frc consts  --     0.0293                 0.0912                 0.0636
 IR Inten    --     0.2849                 2.3242                 0.3007

                     4                      5                      6
                    A'                     A'                     A'
 Frequencies --   375.5375               446.2624               498.9385
 Red. masses --     8.0309                 3.1266                12.5812
 Frc consts  --     0.6673                 0.3669                 1.8453
 IR Inten    --     4.7825                 1.7649                 1.4129

                     7                      8                      9
                    A"                     A"                     A'
 Frequencies --   599.6517               747.1800               909.8214
 Red. masses --     5.2183                 1.4848                 5.2207
 Frc consts  --     1.1055                 0.4884                 2.5462
 IR Inten    --     3.8742                 9.0534                78.2792

                    10                     11                     12
                    A"                     A'                     A"
 Frequencies --   993.8522              1030.6239              1076.4659
 Red. masses --     1.3837                 1.8785                 1.3391
 Frc consts  --     0.8053                 1.1756                 0.9142
 IR Inten    --     6.9232                17.5310                59.5050

                    13                     14                     15
                    A"                     A'                     A'
 Frequencies --  1138.0092              1184.2020              1295.8105
 Red. masses --     1.1300                 2.9573                 2.0895
 Frc consts  --     0.8622                 2.4434                 2.0672
 IR Inten    --    15.1234               101.9663                37.0474

                    16                     17                     18
                    A'                     A'                     A'
 Frequencies --  1424.8686              1462.4601              1584.5844
 Red. masses --     1.3569                 1.6340                 1.2612
 Frc consts  --     1.6231                 2.0591                 1.8657
 IR Inten    --    24.3597                45.1811                24.3401

                    19                     20                     21
                    A'                     A'                     A'
 Frequencies --  1839.1263              1922.0445              3315.0261
 Red. masses --     4.5465                 7.0589                 1.0619
 Frc consts  --     9.0606                15.3642                 6.8755
 IR Inten    --    18.4346               157.2585                 8.0379

                    22                     23                     24
                    A'                     A'                     A'
 Frequencies --  3359.0235              3385.4757              3404.3584
 Red. masses --     1.0951                 1.0933                 1.1156
 Frc consts  --     7.2799                 7.3830                 7.6177
 IR Inten    --     3.5676                 3.8994                17.8656

 - Thermochemistry -
 -------------------
 Temperature   298.150 Kelvin.  Pressure   1.00000 Atm.
 Atom     1 has atomic number  6 and mass  12.00000

 Molecular mass:   105.99856 amu.
 Principal axes and moments of inertia in atomic units:
                           1         2         3
     Eigenvalues --   232.881961257.097271489.97923
           X            0.36438   0.93125   0.00000
           Y            0.93125  -0.36438   0.00000
           Z            0.00000   0.00000   1.00000
 This molecule is an asymmetric top.
 Rotational symmetry number  1.
 Rotational temperatures (Kelvin)      0.37192     0.06890     0.05813
 Rotational constants (GHZ):           7.74960     1.43564     1.21125
 Zero-point vibrational energy     194495.3 (Joules/Mol)
                                   46.48550 (Kcal/Mol)
 Warning -- explicit consideration of   7 degrees of freedom as
           vibrations may cause significant error
 Vibrational temperatures:    182.04   252.20   319.32   540.31   642.07
          (Kelvin)            717.86   862.76  1075.02  1309.03  1429.93
                             1482.84  1548.79  1637.34  1703.80  1864.38
                             2050.07  2104.15  2279.86  2646.09  2765.39
                             4769.58  4832.88  4870.94  4898.11

 Zero-point correction=                           0.074079 (Hartree/Particle)
 Thermal correction to Energy=                    0.080024
 Thermal correction to Enthalpy=                  0.080968
 Thermal correction to Gibbs Free Energy=         0.043642
 Sum of electronic and zero-point Energies=           -712.598936
 Sum of electronic and thermal Energies=              -712.592991
 Sum of electronic and thermal Enthalpies=            -712.592047
 Sum of electronic and thermal Free Energies=         -712.629373

                     E (Thermal)             CV                S
                      KCal/Mol        Cal/Mol-Kelvin    Cal/Mol-Kelvin
 Total                   50.216             19.894             78.560
 Electronic               0.000              0.000              0.000
 Translational            0.889              2.981             39.892
 Rotational               0.889              2.981             27.569
 Vibrational             48.438             13.932             11.099
 Vibration     1          0.611              1.927              2.998
 Vibration     2          0.627              1.873              2.378
 Vibration     3          0.648              1.808              1.943
 Vibration     4          0.746              1.522              1.057
 Vibration     5          0.806              1.369              0.807
 Vibration     6          0.854              1.252              0.661
 Vibration     7          0.958              1.033              0.450

 Optimization completed.
    -- Stationary point found.

 1\1\GINC-MALLOS66\Freq\RHF\6-31G(d,p)\C4H4Cl1F1\MARLIN\26-Oct-2024\0\\
 #N Geom=AllCheck Guess=TCheck SCRF=Check GenChk RHF/6-31G(d,p) Freq\\T
 itle Card Required\\0,1\C,-2.0840120753,-1.6606964701,0.\C,-1.39443565
 22,-0.5421186029,0.\C,0.0703490078,-0.5008828712,0.\H,0.5817723426,-1.
 4471029187,0.\C,0.7632455724,0.6245941227,0.\H,0.2841827715,1.58880563
 86,0.\H,1.8378624333,0.617301584,0.\Cl,-3.79710485,-1.7742010177,0.\F,
 -1.5174883993,-2.8508014665,0.\H,-1.9397315108,0.3825434018,0.\\Versio
 n=EM64L-G09RevA.01\State=1-A'\HF=-712.673015\RMSD=7.058e-10\RMSF=3.029

 Normal termination of Gaussian 09 at Sat Oct 26 20:14:29 2024.
