 Gaussian 09, Revision A.01,
 Gaussian 09:  EM64L-G09RevA.01  8-May-2009

 ------------------------------------------------
 # opt freq=noraman hf/6-31G(d) geom=connectivity
 ------------------------------------------------

 -------------------
 Title Card Required
 -------------------
 Symbolic Z-matrix:
 Charge =  0 Multiplicity = 1

 SCF Done:  E(RHF) =  -712.651969654     A.U. after   14 cycles
 SCF Done:  E(RHF) =  -712.665346521     A.U. after   15 cycles
 SCF Done:  E(RHF) =  -712.665801651     A.U. after   11 cycles
 SCF Done:  E(RHF) =  -712.665844570     A.U. after   10 cycles
 SCF Done:  E(RHF) =  -712.665845293     A.U. after    8 cycles
 Optimization completed.
    -- Stationary point found.
 Normal termination of Gaussian 09 at Sat Oct 26 19:16:23 2024.

 -----------------------------------------------------------------
 #N Geom=AllCheck Guess=TCheck SCRF=Check GenChk RHF/6-31G(d) Freq
 -----------------------------------------------------------------

 Title Card Required
 -------------------
 Redundant internal coordinates taken from checkpoint file:
 4-base2.chk
 Charge =  0 Multiplicity = 1

                         Standard orientation:
 ---------------------------------------------------------------------
 Center     Atomic      Atomic             Coordinates (Angstroms)
 Number     Number       Type             X           Y           Z
 ---------------------------------------------------------------------
      1          6           0        0.000000    0.549042    0.000000
      2          6           0        0.200206   -0.749834    0.000000
      3          6           0       -0.887385   -1.732258    0.000000
      4          1           0       -1.890207   -1.344822    0.000000
      5          6           0       -0.683523   -3.038477    0.000000
      6          1           0        0.305995   -3.461879    0.000000
      7          1           0       -1.504248   -3.731757    0.000000
      8         17           0        1.230917    1.745875    0.000000
      9          9           0       -1.203013    1.087650    0.000000
     10          1           0        1.214205   -1.101102    0.000000
 ---------------------------------------------------------------------

 SCF Done:  E(RHF) =  -712.665845293     A.U. after    1 cycles

 The electronic state is 1-A'.
 Alpha  occ. eigenvalues -- -104.84840 -26.34034 -11.38955 -11.25603 -11.25023
 Alpha  occ. eigenvalues --  -11.23622 -10.58276  -8.05223  -8.04865  -8.04859
 Alpha  occ. eigenvalues --   -1.66219  -1.17780  -1.09823  -1.00801  -0.84639
 Alpha  occ. eigenvalues --   -0.79520  -0.74302  -0.72236  -0.70020  -0.62088
 Alpha  occ. eigenvalues --   -0.60449  -0.57105  -0.51950  -0.51887  -0.47984
 Alpha  occ. eigenvalues --   -0.44453  -0.32981
 Alpha virt. eigenvalues --    0.12081   0.20320   0.24850   0.25842   0.27492
 Alpha virt. eigenvalues --    0.30546   0.33063   0.38835   0.43817   0.50696
 Alpha virt. eigenvalues --    0.53562   0.56147   0.61507   0.62311   0.66029

 Mulliken atomic charges:
              1
     1  C    0.285521
     2  C   -0.250530
     3  C   -0.135700
     4  H    0.214932
     5  C   -0.402736
     6  H    0.182153
     7  H    0.190608
     8  Cl   0.022195
     9  F   -0.336808
    10  H    0.230363
 Sum of Mulliken atomic charges =   0.00000

 Dipole moment (field-independent basis, Debye):
    X=              0.3140    Y=             -1.6633    Z=              0.0000  Tot=              1.6927
 Quadrupole moment (field-independent basis, Debye-Ang):
   XX=            -39.8203   YY=            -39.2109   ZZ=            -43.6199
   XY=              0.6167   XZ=              0.0000   YZ=              0.0000

  Exact polarizability:  45.321  10.590  94.373   0.000   0.000  21.259
 Approx polarizability:  40.607   3.948  70.179   0.000   0.000  22.663

                     1                      2                      3
                    A"                     A'                     A"
 Frequencies --   126.7181               175.9960               222.0644
 Red. masses --     3.1107                 5.0441                 2.1920
 Frc consts  --     0.0294                 0.0921                 0.0637
 IR Inten    --     0.2765                 2.2841                 0.3182

                     4                      5                      6
                    A'                     A'                     A'
 Frequencies --   375.7297               446.2789               498.9562
 Red. masses --     8.0504                 3.1309                12.6016
 Frc consts  --     0.6696                 0.3674                 1.8484
 IR Inten    --     4.7609                 1.7444                 1.4098

                     7                      8                      9
                    A"                     A"                     A'
 Frequencies --   599.3811               748.0189               910.4529
 Red. masses --     5.2307                 1.4880                 5.3069
 Frc consts  --     1.1072                 0.4905                 2.5918
 IR Inten    --     4.0099                 9.1829                78.9857

                    10                     11                     12
                    A"                     A'                     A"
 Frequencies --   996.8353              1033.1498              1077.8993
 Red. masses --     1.3810                 1.8930                 1.3447
 Frc consts  --     0.8085                 1.1905                 0.9205
 IR Inten    --     6.9800                17.3289                60.2083

                    13                     14                     15
                    A"                     A'                     A'
 Frequencies --  1140.9820              1186.6071              1300.8174
 Red. masses --     1.1251                 2.9808                 2.1272
 Frc consts  --     0.8630                 2.4728                 2.1207
 IR Inten    --    16.1735               103.6223                37.4775

                    16                     17                     18
                    A'                     A'                     A'
 Frequencies --  1433.9016              1469.7565              1595.0003
 Red. masses --     1.3550                 1.6084                 1.2609
 Frc consts  --     1.6415                 2.0471                 1.8899
 IR Inten    --    25.5032                42.9973                22.9002

                    19                     20                     21
                    A'                     A'                     A'
 Frequencies --  1841.4586              1923.7258              3336.9514
 Red. masses --     4.4445                 6.9215                 1.0617
 Frc consts  --     8.8797                15.0917                 6.9655
 IR Inten    --    19.8843               152.2986                 9.9248

                    22                     23                     24
                    A'                     A'                     A'
 Frequencies --  3378.0047              3403.2451              3422.4011
 Red. masses --     1.0949                 1.0931                 1.1154
 Frc consts  --     7.3609                 7.4589                 7.6977
 IR Inten    --     3.2952                 3.0613                18.9234

 - Thermochemistry -
 -------------------
 Temperature   298.150 Kelvin.  Pressure   1.00000 Atm.
 Atom     1 has atomic number  6 and mass  12.00000

 Molecular mass:   105.99856 amu.
 Principal axes and moments of inertia in atomic units:
                           1         2         3
     Eigenvalues --   233.049411257.474611490.52402
           X            0.36484   0.93107   0.00000
           Y            0.93107  -0.36484   0.00000
           Z            0.00000   0.00000   1.00000
 This molecule is an asymmetric top.
 Rotational symmetry number  1.
 Rotational temperatures (Kelvin)      0.37165     0.06888     0.05811
 Rotational constants (GHZ):           7.74403     1.43521     1.21081
 Zero-point vibrational energy     195256.5 (Joules/Mol)
                                   46.66742 (Kcal/Mol)
 Warning -- explicit consideration of   7 degrees of freedom as
           vibrations may cause significant error
 Vibrational temperatures:    182.32   253.22   319.50   540.59   642.09
          (Kelvin)            717.89   862.37  1076.23  1309.94  1434.22
                             1486.47  1550.85  1641.62  1707.26  1871.58
                             2063.06  2114.65  2294.85  2649.44  2767.81
                             4801.12  4860.19  4896.50  4924.07

 Zero-point correction=                           0.074369 (Hartree/Particle)
 Thermal correction to Energy=                    0.080310
 Thermal correction to Enthalpy=                  0.081254
 Thermal correction to Gibbs Free Energy=         0.043936
 Sum of electronic and zero-point Energies=           -712.591476
 Sum of electronic and thermal Energies=              -712.585536
 Sum of electronic and thermal Enthalpies=            -712.584591
 Sum of electronic and thermal Free Energies=         -712.621910

                     E (Thermal)             CV                S
                      KCal/Mol        Cal/Mol-Kelvin    Cal/Mol-Kelvin
 Total                   50.395             19.869             78.543
 Electronic               0.000              0.000              0.000
 Translational            0.889              2.981             39.892
 Rotational               0.889              2.981             27.571
 Vibrational             48.618             13.908             11.081
 Vibration     1          0.611              1.926              2.995
 Vibration     2          0.628              1.872              2.370
 Vibration     3          0.648              1.807              1.942
 Vibration     4          0.747              1.522              1.056
 Vibration     5          0.806              1.369              0.807
 Vibration     6          0.854              1.252              0.661
 Vibration     7          0.957              1.033              0.451

 Optimization completed.
    -- Stationary point found.
 Normal termination of Gaussian 09 at Sat Oct 26 19:16:28 2024.
