 Gaussian 09, Revision A.01,
 Gaussian 09:  EM64L-G09RevA.01  8-May-2009

 ---------------------------------------------
 # opt freq=noraman hf/6-31G geom=connectivity
 ---------------------------------------------

 -------------------
 Title Card Required
 -------------------
 Symbolic Z-matrix:
 Charge =  0 Multiplicity = 1

 SCF Done:  E(RHF) =  -712.542344536     A.U. after   14 cycles
 SCF Done:  E(RHF) =  -712.553528785     A.U. after   15 cycles
 SCF Done:  E(RHF) =  -712.554047788     A.U. after   11 cycles
 SCF Done:  E(RHF) =  -712.554080465     A.U. after   10 cycles
 SCF Done:  E(RHF) =  -712.554082045     A.U. after    8 cycles
 Optimization completed.
    -- Stationary point found.
 Normal termination of Gaussian 09 at Sat Oct 26 20:13:22 2024.

 --------------------------------------------------------------
 #N Geom=AllCheck Guess=TCheck SCRF=Check GenChk RHF/6-31G Freq
 --------------------------------------------------------------

 Title Card Required
 -------------------
 Redundant internal coordinates taken from checkpoint file:
 4-base1.chk
 Charge =  0 Multiplicity = 1

                         Standard orientation:
 ---------------------------------------------------------------------
 Center     Atomic      Atomic             Coordinates (Angstroms)
 Number     Number       Type             X           Y           Z
 ---------------------------------------------------------------------
      1          6           0        0.000000    0.530707    0.000000
      2          6           0        0.188611   -0.769100    0.000000
      3          6           0       -0.900195   -1.745367    0.000000
      4          1           0       -1.899192   -1.353621    0.000000
      5          6           0       -0.696472   -3.056250    0.000000
      6          1           0        0.289874   -3.482053    0.000000
      7          1           0       -1.515086   -3.748301    0.000000
      8         17           0        1.267466    1.772003    0.000000
      9          9           0       -1.241324    1.092182    0.000000
     10          1           0        1.197728   -1.129648    0.000000
 ---------------------------------------------------------------------

 SCF Done:  E(RHF) =  -712.554082045     A.U. after    1 cycles

 The electronic state is 1-A'.
 Alpha  occ. eigenvalues -- -104.84773 -26.33123 -11.40683 -11.27952 -11.26414
 Alpha  occ. eigenvalues --  -11.25002 -10.58843  -8.05695  -8.05259  -8.05243
 Alpha  occ. eigenvalues --   -1.64571  -1.17822  -1.11194  -1.02435  -0.84007
 Alpha  occ. eigenvalues --   -0.79829  -0.73810  -0.70967  -0.69791  -0.62909
 Alpha  occ. eigenvalues --   -0.60909  -0.57013  -0.52233  -0.52193  -0.48384
 Alpha  occ. eigenvalues --   -0.45569  -0.34258
 Alpha virt. eigenvalues --    0.10404   0.17762   0.23622   0.24452   0.26691
 Alpha virt. eigenvalues --    0.29248   0.32017   0.37668   0.44600   0.50363
 Alpha virt. eigenvalues --    0.53917   0.59244   0.62419   0.62737   0.66323

 Mulliken atomic charges:
              1
     1  C    0.122891
     2  C   -0.180227
     3  C   -0.132036
     4  H    0.222236
     5  C   -0.361086
     6  H    0.172884
     7  H    0.180791
     8  Cl   0.140531
     9  F   -0.401827
    10  H    0.235844
 Sum of Mulliken atomic charges =   0.00000

 Dipole moment (field-independent basis, Debye):
    X=              0.5660    Y=             -2.6734    Z=              0.0000  Tot=              2.7326
 Quadrupole moment (field-independent basis, Debye-Ang):
   XX=            -41.3074   YY=            -39.7867   ZZ=            -44.0825
   XY=              0.9300   XZ=              0.0000   YZ=              0.0000

  Exact polarizability:  44.716  11.480  94.785   0.000   0.000  17.013
 Approx polarizability:  37.969   4.319  69.380   0.000   0.000  15.343

                     1                      2                      3
                    A"                     A'                     A"
 Frequencies --   128.1681               173.4332               224.5650
 Red. masses --     3.0964                 5.1763                 2.2189
 Frc consts  --     0.0300                 0.0917                 0.0659
 IR Inten    --     0.7495                 2.5848                 0.2731

                     4                      5                      6
                    A'                     A'                     A'
 Frequencies --   359.0095               448.3626               469.2924
 Red. masses --     9.1606                 3.3232                 9.3128
 Frc consts  --     0.6956                 0.3936                 1.2084
 IR Inten    --     7.6966                 0.8624                 1.7158

                     7                      8                      9
                    A"                     A"                     A'
 Frequencies --   572.1680               757.2411               873.9704
 Red. masses --     5.1273                 1.4112                 6.0283
 Frc consts  --     0.9890                 0.4768                 2.7129
 IR Inten    --     2.4270                15.6290                78.3677

                    10                     11                     12
                    A'                     A"                     A"
 Frequencies --  1040.4549              1058.0031              1126.9918
 Red. masses --     2.1309                 1.4054                 1.2200
 Frc consts  --     1.3591                 0.9269                 0.9130
 IR Inten    --    22.0591                 3.2491               108.3658

                    13                     14                     15
                    A'                     A"                     A'
 Frequencies --  1147.3753              1167.7821              1311.9655
 Red. masses --     3.0868                 1.2598                 2.3025
 Frc consts  --     2.3942                 1.0122                 2.3350
 IR Inten    --   107.0817                 1.8165                29.7379

                    16                     17                     18
                    A'                     A'                     A'
 Frequencies --  1458.4554              1478.0850              1612.7356
 Red. masses --     1.3254                 1.3728                 1.2361
 Frc consts  --     1.6611                 1.7670                 1.8942
 IR Inten    --    24.3110                17.2392                19.2747

                    19                     20                     21
                    A'                     A'                     A'
 Frequencies --  1837.7630              1927.2619              3331.8920
 Red. masses --     4.2540                 7.3239                 1.0634
 Frc consts  --     8.4651                16.0277                 6.9557
 IR Inten    --     8.5678                85.3242                 6.8868

                    22                     23                     24
                    A'                     A'                     A'
 Frequencies --  3375.0522              3397.7492              3424.6446
 Red. masses --     1.0948                 1.0928                 1.1142
 Frc consts  --     7.3477                 7.4329                 7.6989
 IR Inten    --     2.8180                 4.9892                17.3132

 - Thermochemistry -
 -------------------
 Temperature   298.150 Kelvin.  Pressure   1.00000 Atm.
 Atom     1 has atomic number  6 and mass  12.00000

 Molecular mass:   105.99856 amu.
 Principal axes and moments of inertia in atomic units:
                           1         2         3
     Eigenvalues --   243.478621286.739361530.21798
           X            0.37319   0.92776   0.00000
           Y            0.92776  -0.37319   0.00000
           Z            0.00000   0.00000   1.00000
 This molecule is an asymmetric top.
 Rotational symmetry number  1.
 Rotational temperatures (Kelvin)      0.35573     0.06731     0.05660
 Rotational constants (GHZ):           7.41232     1.40257     1.17940
 Zero-point vibrational energy     195603.9 (Joules/Mol)
                                   46.75046 (Kcal/Mol)
 Warning -- explicit consideration of   7 degrees of freedom as
           vibrations may cause significant error
 Vibrational temperatures:    184.41   249.53   323.10   516.53   645.09
          (Kelvin)            675.21   823.22  1089.50  1257.45  1496.98
                             1522.23  1621.49  1650.82  1680.18  1887.62
                             2098.39  2126.63  2320.36  2644.13  2772.90
                             4793.84  4855.94  4888.60  4927.29

 Zero-point correction=                           0.074502 (Hartree/Particle)
 Thermal correction to Energy=                    0.080485
 Thermal correction to Enthalpy=                  0.081429
 Thermal correction to Gibbs Free Energy=         0.043994
 Sum of electronic and zero-point Energies=           -712.479580
 Sum of electronic and thermal Energies=              -712.473597
 Sum of electronic and thermal Enthalpies=            -712.472653
 Sum of electronic and thermal Free Energies=         -712.510088

                     E (Thermal)             CV                S
                      KCal/Mol        Cal/Mol-Kelvin    Cal/Mol-Kelvin
 Total                   50.505             19.934             78.787
 Electronic               0.000              0.000              0.000
 Translational            0.889              2.981             39.892
 Rotational               0.889              2.981             27.663
 Vibrational             48.727             13.972             11.233
 Vibration     1          0.611              1.925              2.973
 Vibration     2          0.627              1.875              2.398
 Vibration     3          0.649              1.804              1.922
 Vibration     4          0.734              1.557              1.126
 Vibration     5          0.807              1.365              0.801
 Vibration     6          0.826              1.318              0.740
 Vibration     7          0.928              1.091              0.500

 Optimization completed.
    -- Stationary point found.
 Normal termination of Gaussian 09 at Sat Oct 26 20:13:26 2024.
