 Gaussian 09, Revision A.01,
 Gaussian 09:  EM64L-G09RevA.01  8-May-2009

 -----------------------------------------------
 # opt freq=noraman hf/cc-pvdz geom=connectivity
 -----------------------------------------------

 -------------------
 Title Card Required
 -------------------
 Symbolic Z-matrix:
 Charge =  0 Multiplicity = 1

 SCF Done:  E(RHF) =  -712.693585141     A.U. after   14 cycles
 SCF Done:  E(RHF) =  -712.706358952     A.U. after   14 cycles
 SCF Done:  E(RHF) =  -712.706798382     A.U. after   11 cycles
 SCF Done:  E(RHF) =  -712.706838349     A.U. after   10 cycles
 SCF Done:  E(RHF) =  -712.706838957     A.U. after    7 cycles
 Optimization completed.
    -- Stationary point found.
 Normal termination of Gaussian 09 at Sat Oct 26 19:17:26 2024.

 ----------------------------------------------------------------
 #N Geom=AllCheck Guess=TCheck SCRF=Check GenChk RHF/CC-pVDZ Freq
 ----------------------------------------------------------------

 Title Card Required
 -------------------
 Redundant internal coordinates taken from checkpoint file:
 4-base4.chk
 Charge =  0 Multiplicity = 1

                         Standard orientation:
 ---------------------------------------------------------------------
 Center     Atomic      Atomic             Coordinates (Angstroms)
 Number     Number       Type             X           Y           Z
 ---------------------------------------------------------------------
      1          6           0        0.000000    0.552558    0.000000
      2          6           0        0.185330   -0.751409    0.000000
      3          6           0       -0.910796   -1.725566    0.000000
      4          1           0       -1.917750   -1.328325    0.000000
      5          6           0       -0.716839   -3.037139    0.000000
      6          1           0        0.277536   -3.468229    0.000000
      7          1           0       -1.551122   -3.725779    0.000000
      8         17           0        1.256489    1.728450    0.000000
      9          9           0       -1.191016    1.113063    0.000000
     10          1           0        1.203997   -1.109543    0.000000
 ---------------------------------------------------------------------

 SCF Done:  E(RHF) =  -712.706838957     A.U. after    1 cycles

 The electronic state is 1-A'.
 Alpha  occ. eigenvalues -- -104.85705 -26.34247 -11.39223 -11.26112 -11.25730
 Alpha  occ. eigenvalues --  -11.24525 -10.58448  -8.05217  -8.04851  -8.04842
 Alpha  occ. eigenvalues --   -1.67153  -1.17862  -1.10032  -1.01032  -0.85071
 Alpha  occ. eigenvalues --   -0.79621  -0.74613  -0.72724  -0.70097  -0.62188
 Alpha  occ. eigenvalues --   -0.60335  -0.57092  -0.52082  -0.51839  -0.48028
 Alpha  occ. eigenvalues --   -0.44657  -0.33226
 Alpha virt. eigenvalues --    0.11334   0.19047   0.20143   0.23084   0.23381
 Alpha virt. eigenvalues --    0.24862   0.27464   0.35102   0.40953   0.46638
 Alpha virt. eigenvalues --    0.50518   0.59717   0.64054   0.64462   0.68071

 Mulliken atomic charges:
              1
     1  C    0.225508
     2  C   -0.027861
     3  C   -0.082170
     4  H    0.042443
     5  C   -0.008152
     6  H    0.042212
     7  H    0.054273
     8  Cl  -0.066758
     9  F   -0.233817
    10  H    0.054322
 Sum of Mulliken atomic charges =   0.00000

 Dipole moment (field-independent basis, Debye):
    X=              0.3246    Y=             -1.5856    Z=              0.0000  Tot=              1.6185
 Quadrupole moment (field-independent basis, Debye-Ang):
   XX=            -40.1285   YY=            -39.3930   ZZ=            -43.9215
   XY=              0.7091   XZ=              0.0000   YZ=              0.0000

  Exact polarizability:  47.249  11.745  96.088   0.000   0.000  23.097
 Approx polarizability:  43.113   4.512  71.640   0.000   0.000  25.734

                     1                      2                      3
                    A"                     A'                     A"
 Frequencies --   129.0336               172.3603               221.9517
 Red. masses --     3.1381                 5.0326                 2.1808
 Frc consts  --     0.0308                 0.0881                 0.0633
 IR Inten    --     0.1674                 2.3619                 0.3519

                     4                      5                      6
                    A'                     A'                     A'
 Frequencies --   372.3536               443.1123               496.3573
 Red. masses --     7.9748                 3.1213                12.5706
 Frc consts  --     0.6515                 0.3611                 1.8247
 IR Inten    --     4.7505                 2.0483                 1.9561

                     7                      8                      9
                    A"                     A"                     A'
 Frequencies --   608.2501               745.8425               899.8495
 Red. masses --     4.7576                 1.5034                 5.0820
 Frc consts  --     1.0371                 0.4928                 2.4245
 IR Inten    --     3.9345                 9.0113                81.5436

                    10                     11                     12
                    A"                     A'                     A"
 Frequencies --   987.0285              1022.9690              1057.1763
 Red. masses --     1.3982                 1.8510                 1.3475
 Frc consts  --     0.8026                 1.1413                 0.8873
 IR Inten    --     6.1239                19.3975                52.2554

                    13                     14                     15
                    A"                     A'                     A'
 Frequencies --  1123.5326              1167.5213              1283.7090
 Red. masses --     1.1266                 2.9859                 2.0484
 Frc consts  --     0.8379                 2.3981                 1.9888
 IR Inten    --    16.6533               113.5353                32.4077

                    16                     17                     18
                    A'                     A'                     A'
 Frequencies --  1403.2915              1441.6201              1558.2543
 Red. masses --     1.3727                 1.6162                 1.2574
 Frc consts  --     1.5927                 1.9791                 1.7989
 IR Inten    --    29.3058                43.7937                28.3462

                    19                     20                     21
                    A'                     A'                     A'
 Frequencies --  1826.1148              1916.9472              3304.8012
 Red. masses --     4.8097                 7.5544                 1.0620
 Frc consts  --     9.4498                16.3557                 6.8341
 IR Inten    --    14.9356               178.3583                 5.9320

                    22                     23                     24
                    A'                     A'                     A'
 Frequencies --  3352.1977              3383.7631              3401.1573
 Red. masses --     1.0951                 1.0936                 1.1158
 Frc consts  --     7.2507                 7.3776                 7.6048
 IR Inten    --     3.1149                 3.7375                12.6299

 - Thermochemistry -
 -------------------
 Temperature   298.150 Kelvin.  Pressure   1.00000 Atm.
 Atom     1 has atomic number  6 and mass  12.00000

 Molecular mass:   105.99856 amu.
 Principal axes and moments of inertia in atomic units:
                           1         2         3
     Eigenvalues --   235.179461260.689361495.86882
           X            0.37538   0.92687   0.00000
           Y            0.92687  -0.37538   0.00000
           Z            0.00000   0.00000   1.00000
 This molecule is an asymmetric top.
 Rotational symmetry number  1.
 Rotational temperatures (Kelvin)      0.36829     0.06870     0.05790
 Rotational constants (GHZ):           7.67389     1.43155     1.20648
 Zero-point vibrational energy     193311.7 (Joules/Mol)
                                   46.20261 (Kcal/Mol)
 Warning -- explicit consideration of   7 degrees of freedom as
           vibrations may cause significant error
 Vibrational temperatures:    185.65   247.99   319.34   535.73   637.54
          (Kelvin)            714.15   875.14  1073.10  1294.68  1420.11
                             1471.82  1521.04  1616.51  1679.80  1846.97
                             2019.02  2074.17  2241.98  2627.37  2758.06
                             4754.87  4823.06  4868.47  4893.50

 Zero-point correction=                           0.073629 (Hartree/Particle)
 Thermal correction to Energy=                    0.079588
 Thermal correction to Enthalpy=                  0.080532
 Thermal correction to Gibbs Free Energy=         0.043180
 Sum of electronic and zero-point Energies=           -712.633210
 Sum of electronic and thermal Energies=              -712.627251
 Sum of electronic and thermal Enthalpies=            -712.626307
 Sum of electronic and thermal Free Energies=         -712.663659

                     E (Thermal)             CV                S
                      KCal/Mol        Cal/Mol-Kelvin    Cal/Mol-Kelvin
 Total                   49.942             19.995             78.614
 Electronic               0.000              0.000              0.000
 Translational            0.889              2.981             39.892
 Rotational               0.889              2.981             27.586
 Vibrational             48.165             14.034             11.137
 Vibration     1          0.612              1.924              2.960
 Vibration     2          0.626              1.876              2.410
 Vibration     3          0.648              1.808              1.943
 Vibration     4          0.744              1.529              1.070
 Vibration     5          0.803              1.376              0.817
 Vibration     6          0.852              1.258              0.667
 Vibration     7          0.967              1.014              0.436

 Optimization completed.
    -- Stationary point found.
 Normal termination of Gaussian 09 at Sat Oct 26 19:17:31 2024.
