 Gaussian 09, Revision A.01,
 Gaussian 09:  EM64L-G09RevA.01  8-May-2009

 -----------------------------------------------
 # opt freq=noraman hf/cc-pvtz geom=connectivity
 -----------------------------------------------

 -------------------
 Title Card Required
 -------------------
 Symbolic Z-matrix:
 Charge =  0 Multiplicity = 1

 SCF Done:  E(RHF) =  -712.785067846     A.U. after   13 cycles
 SCF Done:  E(RHF) =  -712.799718539     A.U. after   14 cycles
 SCF Done:  E(RHF) =  -712.800182845     A.U. after   10 cycles
 SCF Done:  E(RHF) =  -712.800218748     A.U. after    9 cycles
 SCF Done:  E(RHF) =  -712.800219312     A.U. after    7 cycles
 Optimization completed.
    -- Stationary point found.
 Normal termination of Gaussian 09 at Sat Oct 26 17:19:01 2024.

 ----------------------------------------------------------------
 #N Geom=AllCheck Guess=TCheck SCRF=Check GenChk RHF/CC-pVTZ Freq
 ----------------------------------------------------------------

 Title Card Required
 -------------------
 Redundant internal coordinates taken from checkpoint file:
 4-base5.chk
 Charge =  0 Multiplicity = 1

                         Standard orientation:
 ---------------------------------------------------------------------
 Center     Atomic      Atomic             Coordinates (Angstroms)
 Number     Number       Type             X           Y           Z
 ---------------------------------------------------------------------
      1          6           0        0.000000    0.550667    0.000000
      2          6           0        0.181442   -0.747714    0.000000
      3          6           0       -0.912083   -1.719538    0.000000
      4          1           0       -1.911546   -1.327717    0.000000
      5          6           0       -0.717851   -3.023946    0.000000
      6          1           0        0.268540   -3.450381    0.000000
      7          1           0       -1.543780   -3.708281    0.000000
      8         17           0        1.254924    1.720240    0.000000
      9          9           0       -1.182976    1.110082    0.000000
     10          1           0        1.190814   -1.105258    0.000000
 ---------------------------------------------------------------------

 SCF Done:  E(RHF) =  -712.800219313     A.U. after    1 cycles

 The electronic state is 1-A'.
 Alpha  occ. eigenvalues -- -104.86134 -26.33967 -11.38710 -11.25119 -11.24882
 Alpha  occ. eigenvalues --  -11.23362 -10.58660  -8.05353  -8.05150  -8.05142
 Alpha  occ. eigenvalues --   -1.67283  -1.17819  -1.10122  -1.01126  -0.85381
 Alpha  occ. eigenvalues --   -0.79908  -0.75060  -0.73251  -0.70488  -0.62515
 Alpha  occ. eigenvalues --   -0.60630  -0.57335  -0.52253  -0.52080  -0.48107
 Alpha  occ. eigenvalues --   -0.44825  -0.33386
 Alpha virt. eigenvalues --    0.10884   0.15203   0.16533   0.19723   0.20454
 Alpha virt. eigenvalues --    0.21303   0.22736   0.30210   0.31177   0.35691
 Alpha virt. eigenvalues --    0.39564   0.41435   0.43195   0.44619   0.46179

 Mulliken atomic charges:
              1
     1  C    0.278764
     2  C   -0.206565
     3  C   -0.089744
     4  H    0.176398
     5  C   -0.335315
     6  H    0.139872
     7  H    0.147015
     8  Cl  -0.107177
     9  F   -0.189357
    10  H    0.186110
 Sum of Mulliken atomic charges =   0.00000

 Dipole moment (field-independent basis, Debye):
    X=              0.2826    Y=             -1.5028    Z=              0.0000  Tot=              1.5291
 Quadrupole moment (field-independent basis, Debye-Ang):
   XX=            -40.0413   YY=            -39.4412   ZZ=            -43.9537
   XY=              0.6327   XZ=              0.0000   YZ=              0.0000

  Exact polarizability:  51.483  12.199 100.695   0.000   0.000  32.679
 Approx polarizability:  47.994   4.326  75.147   0.000   0.000  36.529

                     1                      2                      3
                    A"                     A'                     A"
 Frequencies --   127.7645               173.0911               221.1481
 Red. masses --     3.1196                 5.0445                 2.1939
 Frc consts  --     0.0300                 0.0890                 0.0632
 IR Inten    --     0.0902                 2.2175                 0.4184

                     4                      5                      6
                    A'                     A'                     A'
 Frequencies --   373.1643               445.5022               498.1944
 Red. masses --     8.0028                 3.1130                12.8237
 Frc consts  --     0.6566                 0.3640                 1.8753
 IR Inten    --     4.1027                 2.1681                 1.6161

                     7                      8                      9
                    A"                     A"                     A'
 Frequencies --   613.9938               751.0933               906.7418
 Red. masses --     4.7581                 1.4892                 5.2478
 Frc consts  --     1.0569                 0.4950                 2.5421
 IR Inten    --     2.8488                11.3276                75.6212

                    10                     11                     12
                    A"                     A'                     A"
 Frequencies --   993.6672              1023.0637              1073.3157
 Red. masses --     1.4033                 1.9341                 1.3213
 Frc consts  --     0.8163                 1.1927                 0.8968
 IR Inten    --     5.2463                15.0257                65.2122

                    13                     14                     15
                    A"                     A'                     A'
 Frequencies --  1133.4466              1173.0179              1288.1100
 Red. masses --     1.1488                 2.8733                 2.1213
 Frc consts  --     0.8696                 2.3294                 2.0737
 IR Inten    --    13.9410               106.3257                35.0212

                    16                     17                     18
                    A'                     A'                     A'
 Frequencies --  1421.4102              1450.1460              1575.1209
 Red. masses --     1.3743                 1.6056                 1.2609
 Frc consts  --     1.6359                 1.9894                 1.8432
 IR Inten    --    27.4907                38.7152                27.6251

                    19                     20                     21
                    A'                     A'                     A'
 Frequencies --  1810.7300              1894.8164              3284.5556
 Red. masses --     4.3743                 6.9873                 1.0612
 Frc consts  --     8.4502                14.7807                 6.7454
 IR Inten    --    13.1983               182.3330                 6.7994

                    22                     23                     24
                    A'                     A'                     A'
 Frequencies --  3327.2453              3361.3132              3371.3761
 Red. masses --     1.0946                 1.0938                 1.1141
 Frc consts  --     7.1394                 7.2815                 7.4610
 IR Inten    --     2.5134                 2.7412                14.7093

 - Thermochemistry -
 -------------------
 Temperature   298.150 Kelvin.  Pressure   1.00000 Atm.
 Atom     1 has atomic number  6 and mass  12.00000

 Molecular mass:   105.99856 amu.
 Principal axes and moments of inertia in atomic units:
                           1         2         3
     Eigenvalues --   232.871621251.473491484.34512
           X            0.37707   0.92618   0.00000
           Y            0.92618  -0.37707   0.00000
           Z            0.00000   0.00000   1.00000
 This molecule is an asymmetric top.
 Rotational symmetry number  1.
 Rotational temperatures (Kelvin)      0.37194     0.06921     0.05835
 Rotational constants (GHZ):           7.74994     1.44209     1.21585
 Zero-point vibrational energy     193149.2 (Joules/Mol)
                                   46.16377 (Kcal/Mol)
 Warning -- explicit consideration of   7 degrees of freedom as
           vibrations may cause significant error
 Vibrational temperatures:    183.82   249.04   318.18   536.90   640.98
          (Kelvin)            716.79   883.40  1080.65  1304.60  1429.66
                             1471.96  1544.26  1630.77  1687.71  1853.30
                             2045.09  2086.43  2266.24  2605.23  2726.21
                             4725.74  4787.16  4836.17  4850.65

 Zero-point correction=                           0.073567 (Hartree/Particle)
 Thermal correction to Energy=                    0.079513
 Thermal correction to Enthalpy=                  0.080457
 Thermal correction to Gibbs Free Energy=         0.043131
 Sum of electronic and zero-point Energies=           -712.726653
 Sum of electronic and thermal Energies=              -712.720706
 Sum of electronic and thermal Enthalpies=            -712.719762
 Sum of electronic and thermal Free Energies=         -712.757089

                     E (Thermal)             CV                S
                      KCal/Mol        Cal/Mol-Kelvin    Cal/Mol-Kelvin
 Total                   49.895             19.909             78.560
 Electronic               0.000              0.000              0.000
 Translational            0.889              2.981             39.892
 Rotational               0.889              2.981             27.561
 Vibrational             48.118             13.947             11.108
 Vibration     1          0.611              1.925              2.979
 Vibration     2          0.627              1.876              2.402
 Vibration     3          0.648              1.809              1.950
 Vibration     4          0.745              1.527              1.067
 Vibration     5          0.805              1.371              0.809
 Vibration     6          0.854              1.254              0.663
 Vibration     7          0.973              1.002              0.426

 Optimization completed.
    -- Stationary point found.
 Normal termination of Gaussian 09 at Sat Oct 26 17:19:49 2024.
