 Gaussian 09, Revision A.01,
 Gaussian 09:  EM64L-G09RevA.01  8-May-2009

 -----------------------------------------------
 # opt freq=noraman hf/cc-pvtz geom=connectivity
 -----------------------------------------------

 -------------------
 Title Card Required
 -------------------
 Symbolic Z-matrix:
 Charge =  0 Multiplicity = 1

 SCF Done:  E(RHF) =  -712.784418139     A.U. after   13 cycles
 SCF Done:  E(RHF) =  -712.796985715     A.U. after   13 cycles
 SCF Done:  E(RHF) =  -712.797394456     A.U. after   11 cycles
 SCF Done:  E(RHF) =  -712.797422306     A.U. after    9 cycles
 SCF Done:  E(RHF) =  -712.797423558     A.U. after    9 cycles
 Optimization completed.
    -- Stationary point found.
 Normal termination of Gaussian 09 at Sat Oct 26 20:17:59 2024.

 ----------------------------------------------------------------
 #N Geom=AllCheck Guess=TCheck SCRF=Check GenChk RHF/CC-pVTZ Freq
 ----------------------------------------------------------------

 Title Card Required
 -------------------
 Redundant internal coordinates taken from checkpoint file:
 5-base5.chk
 Charge =  0 Multiplicity = 1

                         Standard orientation:
 ---------------------------------------------------------------------
 Center     Atomic      Atomic             Coordinates (Angstroms)
 Number     Number       Type             X           Y           Z
 ---------------------------------------------------------------------
      1          6           0       -0.336381    1.440481    0.000000
      2          6           0        0.000000    0.170348    0.000000
      3          6           0       -0.961223   -0.934750    0.000000
      4          1           0       -1.987532   -0.621027    0.000000
      5          6           0       -0.667106   -2.218470    0.000000
      6          1           0        0.342352   -2.578300    0.000000
      7          1           0       -1.450316   -2.951191    0.000000
      8          9           0       -1.599975    1.816591    0.000000
      9         17           0        1.701820   -0.188358    0.000000
     10          1           0        0.352576    2.257623    0.000000
 ---------------------------------------------------------------------

 SCF Done:  E(RHF) =  -712.797423558     A.U. after    1 cycles

 The electronic state is 1-A'.
 Alpha  occ. eigenvalues -- -104.84773 -26.32753 -11.33514 -11.30719 -11.25231
 Alpha  occ. eigenvalues --  -11.23653 -10.57269  -8.03961  -8.03768  -8.03760
 Alpha  occ. eigenvalues --   -1.65488  -1.18466  -1.06661  -1.02159  -0.86936
 Alpha  occ. eigenvalues --   -0.78257  -0.75155  -0.71541  -0.71212  -0.62749
 Alpha  occ. eigenvalues --   -0.60366  -0.57826  -0.53366  -0.52013  -0.46570
 Alpha  occ. eigenvalues --   -0.42607  -0.34122
 Alpha virt. eigenvalues --    0.10174   0.15892   0.16648   0.18875   0.20147
 Alpha virt. eigenvalues --    0.21903   0.22795   0.28794   0.32792   0.33465
 Alpha virt. eigenvalues --    0.38726   0.41168   0.43955   0.45200   0.45851

 Mulliken atomic charges:
              1
     1  C    0.098217
     2  C    0.072108
     3  C   -0.136099
     4  H    0.183218
     5  C   -0.314737
     6  H    0.156648
     7  H    0.147727
     8  F   -0.219378
     9  Cl  -0.150747
    10  H    0.163044
 Sum of Mulliken atomic charges =   0.00000

 Dipole moment (field-independent basis, Debye):
    X=             -0.2558    Y=             -0.1459    Z=              0.0000  Tot=              0.2944
 Quadrupole moment (field-independent basis, Debye-Ang):
   XX=            -42.6701   YY=            -37.1532   ZZ=            -43.9633
   XY=              3.0210   XZ=              0.0000   YZ=              0.0000

  Exact polarizability:  57.544  -3.963  85.512   0.000   0.000  32.239
 Approx polarizability:  52.109  -4.994  70.088   0.000   0.000  36.428

                     1                      2                      3
                    A"                     A'                     A'
 Frequencies --   138.1417               217.2638               281.3145
 Red. masses --     2.1644                 5.1506                 6.9795
 Frc consts  --     0.0243                 0.1432                 0.3254
 IR Inten    --     0.0655                 2.7647                 3.0512

                     4                      5                      6
                    A"                     A"                     A'
 Frequencies --   308.8110               439.1934               473.7237
 Red. masses --     5.7048                 1.8290                 7.9242
 Frc consts  --     0.3205                 0.2079                 1.0477
 IR Inten    --     3.0306                16.3844                 0.2877

                     7                      8                      9
                    A'                     A'                     A"
 Frequencies --   572.5752               792.3260               805.2911
 Red. masses --     3.7359                 5.1967                 2.0400
 Frc consts  --     0.7216                 1.9221                 0.7794
 IR Inten    --     4.4155                 7.9494                 1.2600

                    10                     11                     12
                    A"                     A'                     A"
 Frequencies --   992.4775              1052.4630              1087.5343
 Red. masses --     1.4430                 1.9089                 1.2692
 Frc consts  --     0.8375                 1.2458                 0.8844
 IR Inten    --    15.5349                46.5697                57.2921

                    13                     14                     15
                    A"                     A'                     A'
 Frequencies --  1125.4221              1228.7928              1297.2028
 Red. masses --     1.1749                 3.9282                 2.7347
 Frc consts  --     0.8767                 3.4946                 2.7112
 IR Inten    --     6.7974               220.4247                25.7577

                    16                     17                     18
                    A'                     A'                     A'
 Frequencies --  1435.4709              1472.8614              1571.5419
 Red. masses --     1.2348                 1.3629                 1.2608
 Frc consts  --     1.4991                 1.7419                 1.8346
 IR Inten    --     4.9546                 0.6180                17.7139

                    19                     20                     21
                    A'                     A'                     A'
 Frequencies --  1810.9857              1883.6208              3302.9200
 Red. masses --     4.3827                 6.6202                 1.0602
 Frc consts  --     8.4689                13.8390                 6.8145
 IR Inten    --    10.8115                59.9712                 2.4253

                    22                     23                     24
                    A'                     A'                     A'
 Frequencies --  3336.0082              3389.6817              3399.1910
 Red. masses --     1.0941                 1.1162                 1.0973
 Frc consts  --     7.1742                 7.5563                 7.4698
 IR Inten    --     2.3724                 6.3371                 3.9005

 - Thermochemistry -
 -------------------
 Temperature   298.150 Kelvin.  Pressure   1.00000 Atm.
 Atom     1 has atomic number  6 and mass  12.00000

 Molecular mass:   105.99856 amu.
 Principal axes and moments of inertia in atomic units:
                           1         2         3
     Eigenvalues --   493.64559 768.420081262.06567
           X           -0.68147   0.73184   0.00000
           Y            0.73184   0.68147   0.00000
           Z            0.00000   0.00000   1.00000
 This molecule is an asymmetric top.
 Rotational symmetry number  1.
 Warning -- assumption of classical behavior for rotation
           may cause significant error
 Rotational temperatures (Kelvin)      0.17546     0.11272     0.06863
 Rotational constants (GHZ):           3.65595     2.34864     1.42999
 Zero-point vibrational energy     193883.6 (Joules/Mol)
                                   46.33930 (Kcal/Mol)
 Warning -- explicit consideration of   7 degrees of freedom as
           vibrations may cause significant error
 Vibrational temperatures:    198.75   312.59   404.75   444.31   631.90
          (Kelvin)            681.58   823.81  1139.98  1158.63  1427.95
                             1514.26  1564.72  1619.23  1767.96  1866.38
                             2065.32  2119.12  2261.10  2605.60  2710.11
                             4752.16  4799.77  4876.99  4890.67

 Zero-point correction=                           0.073846 (Hartree/Particle)
 Thermal correction to Energy=                    0.079742
 Thermal correction to Enthalpy=                  0.080686
 Thermal correction to Gibbs Free Energy=         0.043563
 Sum of electronic and zero-point Energies=           -712.723577
 Sum of electronic and thermal Energies=              -712.717681
 Sum of electronic and thermal Enthalpies=            -712.716737
 Sum of electronic and thermal Free Energies=         -712.753860

                     E (Thermal)             CV                S
                      KCal/Mol        Cal/Mol-Kelvin    Cal/Mol-Kelvin
 Total                   50.039             20.018             78.132
 Electronic               0.000              0.000              0.000
 Translational            0.889              2.981             39.892
 Rotational               0.889              2.981             27.662
 Vibrational             48.261             14.056             10.579
 Vibration     1          0.614              1.915              2.829
 Vibration     2          0.646              1.815              1.982
 Vibration     3          0.681              1.708              1.526
 Vibration     4          0.698              1.657              1.369
 Vibration     5          0.799              1.385              0.829
 Vibration     6          0.831              1.308              0.727
 Vibration     7          0.929              1.091              0.499

 Optimization completed.
    -- Stationary point found.
 Normal termination of Gaussian 09 at Sat Oct 26 20:18:51 2024.
