 Gaussian 09, Revision A.01,
 Gaussian 09:  EM64L-G09RevA.01  8-May-2009

 --------------------------------------------------
 # opt freq=noraman hf/6-31G(d,p) geom=connectivity
 --------------------------------------------------

 -------------------
 Title Card Required
 -------------------
 Symbolic Z-matrix:
 Charge =  0 Multiplicity = 1

 SCF Done:  E(RHF) =  -712.659099493     A.U. after   13 cycles
 SCF Done:  E(RHF) =  -712.670742242     A.U. after   14 cycles
 SCF Done:  E(RHF) =  -712.671133006     A.U. after   11 cycles
 SCF Done:  E(RHF) =  -712.671165911     A.U. after   10 cycles
 SCF Done:  E(RHF) =  -712.671167000     A.U. after    9 cycles
 Optimization completed.
    -- Stationary point found.

 1\1\GINC-MALLOS72\FOpt\RHF\6-31G(d,p)\C4H4Cl1F1\MARLIN\26-Oct-2024\0\\
 # opt freq=noraman hf/6-31G(d,p) geom=connectivity\\Title Card Require
 d\\0,1\C,-2.0821249197,-1.6764565352,0.\C,-1.4074960338,-0.545091709,0
 .\C,0.0578905736,-0.4677521687,0.\H,0.5421265891,-1.4277257173,0.\C,0.
 7813193412,0.6363147512,0.\H,0.3428447765,1.6166024224,0.\H,1.85435499
 16,0.5795545825,0.\F,-1.4541065181,-2.8449320719,0.\Cl,-2.3351433458,0
 .9302142042,0.\H,-3.1488416947,-1.7650467381,0.\\Version=EM64L-G09RevA
 .01\State=1-A'\HF=-712.671167\RMSD=8.125e-09\RMSF=4.024e-05\Dipole=0.1

 Normal termination of Gaussian 09 at Sat Oct 26 18:15:27 2024.

 -------------------------------------------------------------------
 #N Geom=AllCheck Guess=TCheck SCRF=Check GenChk RHF/6-31G(d,p) Freq
 -------------------------------------------------------------------

 Title Card Required
 -------------------
 Redundant internal coordinates taken from checkpoint file:
 5-base3.chk
 Charge =  0 Multiplicity = 1

                         Standard orientation:
 ---------------------------------------------------------------------
 Center     Atomic      Atomic             Coordinates (Angstroms)
 Number     Number       Type             X           Y           Z
 ---------------------------------------------------------------------
      1          6           0       -0.378428    1.435219    0.000000
      2          6           0        0.000000    0.173513    0.000000
      3          6           0       -0.932916   -0.959186    0.000000
      4          1           0       -1.967845   -0.667712    0.000000
      5          6           0       -0.607582   -2.238432    0.000000
      6          1           0        0.411410   -2.577370    0.000000
      7          1           0       -1.374320   -2.991254    0.000000
      8          9           0       -1.664220    1.761534    0.000000
      9         17           0        1.714437   -0.139160    0.000000
     10          1           0        0.276872    2.281573    0.000000
 ---------------------------------------------------------------------

 SCF Done:  E(RHF) =  -712.671167000     A.U. after    1 cycles

 The electronic state is 1-A'.
 Alpha  occ. eigenvalues -- -104.83602 -26.32885 -11.34034 -11.30951 -11.25348
 Alpha  occ. eigenvalues --  -11.23817 -10.56938  -8.03881  -8.03546  -8.03532
 Alpha  occ. eigenvalues --   -1.64521  -1.18284  -1.06310  -1.01858  -0.86468
 Alpha  occ. eigenvalues --   -0.77592  -0.74381  -0.70698  -0.70578  -0.62139
 Alpha  occ. eigenvalues --   -0.60059  -0.57500  -0.52969  -0.51681  -0.46433
 Alpha  occ. eigenvalues --   -0.42288  -0.33628
 Alpha virt. eigenvalues --    0.11476   0.19728   0.25015   0.26896   0.28603
 Alpha virt. eigenvalues --    0.29577   0.32616   0.37567   0.45596   0.49252
 Alpha virt. eigenvalues --    0.52927   0.58968   0.62589   0.63444   0.65966

 Mulliken atomic charges:
              1
     1  C    0.298600
     2  C   -0.218987
     3  C   -0.082478
     4  H    0.173333
     5  C   -0.285695
     6  H    0.156641
     7  H    0.141927
     8  F   -0.358191
     9  Cl   0.004800
    10  H    0.170050
 Sum of Mulliken atomic charges =   0.00000

 Dipole moment (field-independent basis, Debye):
    X=             -0.2953    Y=             -0.0998    Z=              0.0000  Tot=              0.3117
 Quadrupole moment (field-independent basis, Debye-Ang):
   XX=            -42.6636   YY=            -36.5705   ZZ=            -43.6270
   XY=              2.9077   XZ=              0.0000   YZ=              0.0000

  Exact polarizability:  52.540  -5.601  79.693   0.000   0.000  21.539
 Approx polarizability:  46.250  -6.639  64.277   0.000   0.000  23.246

                     1                      2                      3
                    A"                     A'                     A'
 Frequencies --   134.3354               220.4069               283.5544
 Red. masses --     2.1297                 5.1300                 6.9937
 Frc consts  --     0.0226                 0.1468                 0.3313
 IR Inten    --     0.0501                 2.9867                 3.4288

                     4                      5                      6
                    A"                     A"                     A'
 Frequencies --   307.3872               437.1768               475.8444
 Red. masses --     5.8435                 1.8571                 8.0684
 Frc consts  --     0.3253                 0.2091                 1.0764
 IR Inten    --     4.5624                15.5787                 0.4864

                     7                      8                      9
                    A'                     A'                     A"
 Frequencies --   575.8534               796.3824               802.6341
 Red. masses --     3.7172                 5.2190                 2.0898
 Frc consts  --     0.7263                 1.9502                 0.7932
 IR Inten    --     4.5121                 9.6820                 0.6300

                    10                     11                     12
                    A"                     A'                     A"
 Frequencies --   991.1615              1060.2919              1089.3813
 Red. masses --     1.4170                 1.8692                 1.2965
 Frc consts  --     0.8202                 1.2381                 0.9065
 IR Inten    --    12.0313                45.5258                54.7718

                    13                     14                     15
                    A"                     A'                     A'
 Frequencies --  1128.0677              1236.6033              1303.1026
 Red. masses --     1.1478                 4.0759                 2.6150
 Frc consts  --     0.8606                 3.6723                 2.6163
 IR Inten    --     9.7832               211.8167                18.8894

                    16                     17                     18
                    A'                     A'                     A'
 Frequencies --  1438.3992              1482.7971              1580.8322
 Red. masses --     1.2234                 1.3865                 1.2617
 Frc consts  --     1.4913                 1.7961                 1.8577
 IR Inten    --     5.0266                 0.2883                14.3990

                    19                     20                     21
                    A'                     A'                     A'
 Frequencies --  1838.4263              1911.0671              3332.9388
 Red. masses --     4.5652                 6.6662                 1.0606
 Frc consts  --     9.0908                14.3444                 6.9416
 IR Inten    --    12.2622                51.0342                 2.9837

                    22                     23                     24
                    A'                     A'                     A'
 Frequencies --  3367.2836              3422.4636              3436.0287
 Red. masses --     1.0948                 1.1168                 1.0975
 Frc consts  --     7.3136                 7.7074                 7.6345
 IR Inten    --     3.1358                 8.4940                 2.7424

 - Thermochemistry -
 -------------------
 Temperature   298.150 Kelvin.  Pressure   1.00000 Atm.
 Atom     1 has atomic number  6 and mass  12.00000

 Molecular mass:   105.99856 amu.
 Principal axes and moments of inertia in atomic units:
                           1         2         3
     Eigenvalues --   495.96980 771.676631267.64643
           X            0.71162   0.70256   0.00000
           Y           -0.70256   0.71162   0.00000
           Z            0.00000   0.00000   1.00000
 This molecule is an asymmetric top.
 Rotational symmetry number  1.
 Warning -- assumption of classical behavior for rotation
           may cause significant error
 Rotational temperatures (Kelvin)      0.17464     0.11224     0.06833
 Rotational constants (GHZ):           3.63881     2.33873     1.42369
 Zero-point vibrational energy     195304.8 (Joules/Mol)
                                   46.67898 (Kcal/Mol)
 Warning -- explicit consideration of   7 degrees of freedom as
           vibrations may cause significant error
 Vibrational temperatures:    193.28   317.12   407.97   442.26   629.00
          (Kelvin)            684.63   828.52  1145.82  1154.81  1426.06
                             1525.52  1567.37  1623.04  1779.19  1874.87
                             2069.53  2133.41  2274.46  2645.08  2749.60
                             4795.35  4844.76  4924.16  4943.67

 Zero-point correction=                           0.074388 (Hartree/Particle)
 Thermal correction to Energy=                    0.080279
 Thermal correction to Enthalpy=                  0.081224
 Thermal correction to Gibbs Free Energy=         0.044090
 Sum of electronic and zero-point Energies=           -712.596779
 Sum of electronic and thermal Energies=              -712.590888
 Sum of electronic and thermal Enthalpies=            -712.589943
 Sum of electronic and thermal Free Energies=         -712.627077

                     E (Thermal)             CV                S
                      KCal/Mol        Cal/Mol-Kelvin    Cal/Mol-Kelvin
 Total                   50.376             19.979             78.154
 Electronic               0.000              0.000              0.000
 Translational            0.889              2.981             39.892
 Rotational               0.889              2.981             27.675
 Vibrational             48.599             14.017             10.587
 Vibration     1          0.613              1.919              2.883
 Vibration     2          0.647              1.810              1.956
 Vibration     3          0.682              1.704              1.512
 Vibration     4          0.697              1.660              1.376
 Vibration     5          0.797              1.389              0.836
 Vibration     6          0.832              1.304              0.721
 Vibration     7          0.932              1.083              0.493

 Optimization completed.
    -- Stationary point found.

 1\1\GINC-MALLOS72\Freq\RHF\6-31G(d,p)\C4H4Cl1F1\MARLIN\26-Oct-2024\0\\
 #N Geom=AllCheck Guess=TCheck SCRF=Check GenChk RHF/6-31G(d,p) Freq\\T
 itle Card Required\\0,1\C,-2.0821249197,-1.6764565352,0.\C,-1.40749603
 38,-0.545091709,0.\C,0.0578905736,-0.4677521687,0.\H,0.5421265891,-1.4
 277257173,0.\C,0.7813193412,0.6363147512,0.\H,0.3428447765,1.616602422
 4,0.\H,1.8543549916,0.5795545825,0.\F,-1.4541065181,-2.8449320719,0.\C
 l,-2.3351433458,0.9302142042,0.\H,-3.1488416947,-1.7650467381,0.\\Vers
 ion=EM64L-G09RevA.01\State=1-A'\HF=-712.671167\RMSD=2.448e-09\RMSF=4.0

 Normal termination of Gaussian 09 at Sat Oct 26 18:15:33 2024.
