 Gaussian 09, Revision A.01,
 Gaussian 09:  EM64L-G09RevA.01  8-May-2009

 -----------------------------------------------
 # opt freq=noraman hf/cc-pvdz geom=connectivity
 -----------------------------------------------

 -------------------
 Title Card Required
 -------------------
 Symbolic Z-matrix:
 Charge =  0 Multiplicity = 1

 SCF Done:  E(RHF) =  -712.693631915     A.U. after   13 cycles
 SCF Done:  E(RHF) =  -712.704512436     A.U. after   14 cycles
 SCF Done:  E(RHF) =  -712.704886892     A.U. after   11 cycles
 SCF Done:  E(RHF) =  -712.704916417     A.U. after   10 cycles
 SCF Done:  E(RHF) =  -712.704917621     A.U. after    9 cycles
 Optimization completed.
    -- Stationary point found.
 Normal termination of Gaussian 09 at Sat Oct 26 19:18:26 2024.

 ----------------------------------------------------------------
 #N Geom=AllCheck Guess=TCheck SCRF=Check GenChk RHF/CC-pVDZ Freq
 ----------------------------------------------------------------

 Title Card Required
 -------------------
 Redundant internal coordinates taken from checkpoint file:
 5-base4.chk
 Charge =  0 Multiplicity = 1

                         Standard orientation:
 ---------------------------------------------------------------------
 Center     Atomic      Atomic             Coordinates (Angstroms)
 Number     Number       Type             X           Y           Z
 ---------------------------------------------------------------------
      1          6           0       -0.355932    1.443713    0.000000
      2          6           0        0.000000    0.171981    0.000000
      3          6           0       -0.951423   -0.946495    0.000000
      4          1           0       -1.988219   -0.637470    0.000000
      5          6           0       -0.643659   -2.234250    0.000000
      6          1           0        0.378208   -2.586791    0.000000
      7          1           0       -1.427067   -2.980102    0.000000
      8          9           0       -1.633398    1.798090    0.000000
      9         17           0        1.712900   -0.168680    0.000000
     10          1           0        0.324449    2.279415    0.000000
 ---------------------------------------------------------------------

 SCF Done:  E(RHF) =  -712.704917621     A.U. after    1 cycles

 The electronic state is 1-A'.
 Alpha  occ. eigenvalues -- -104.84379 -26.32982 -11.34469 -11.31281 -11.26029
 Alpha  occ. eigenvalues --  -11.24773 -10.57062  -8.03828  -8.03486  -8.03465
 Alpha  occ. eigenvalues --   -1.65291  -1.18382  -1.06538  -1.02085  -0.86667
 Alpha  occ. eigenvalues --   -0.77849  -0.74622  -0.70953  -0.70790  -0.62327
 Alpha  occ. eigenvalues --   -0.60049  -0.57563  -0.53101  -0.51749  -0.46513
 Alpha  occ. eigenvalues --   -0.42455  -0.33899
 Alpha virt. eigenvalues --    0.10723   0.18722   0.21039   0.22971   0.23710
 Alpha virt. eigenvalues --    0.23745   0.27677   0.34823   0.42381   0.44796
 Alpha virt. eigenvalues --    0.48705   0.59793   0.62344   0.63774   0.68579

 Mulliken atomic charges:
              1
     1  C    0.415176
     2  C   -0.255588
     3  C   -0.044769
     4  H    0.046108
     5  C    0.010622
     6  H    0.063939
     7  H    0.057550
     8  F   -0.261143
     9  Cl  -0.096005
    10  H    0.064110
 Sum of Mulliken atomic charges =   0.00000

 Dipole moment (field-independent basis, Debye):
    X=             -0.2055    Y=             -0.1448    Z=              0.0000  Tot=              0.2514
 Quadrupole moment (field-independent basis, Debye-Ang):
   XX=            -42.8172   YY=            -36.9252   ZZ=            -43.9471
   XY=              3.1072   XZ=              0.0000   YZ=              0.0000

  Exact polarizability:  53.586  -4.795  81.796   0.000   0.000  22.834
 Approx polarizability:  48.094  -6.127  65.996   0.000   0.000  25.577

                     1                      2                      3
                    A"                     A'                     A'
 Frequencies --   137.7379               217.4454               280.9144
 Red. masses --     2.1566                 5.1217                 6.9545
 Frc consts  --     0.0241                 0.1427                 0.3233
 IR Inten    --     0.0706                 3.0322                 3.3845

                     4                      5                      6
                    A"                     A"                     A'
 Frequencies --   308.1734               438.4476               472.0491
 Red. masses --     5.7985                 1.8153                 7.9821
 Frc consts  --     0.3245                 0.2056                 1.0480
 IR Inten    --     3.9678                17.4781                 0.4435

                     7                      8                      9
                    A'                     A'                     A"
 Frequencies --   569.9833               791.2575               798.1128
 Red. masses --     3.7115                 5.2147                 2.0846
 Frc consts  --     0.7104                 1.9236                 0.7823
 IR Inten    --     4.3918                 9.6657                 0.5339

                    10                     11                     12
                    A"                     A'                     A"
 Frequencies --   983.1386              1048.5151              1071.2971
 Red. masses --     1.4350                 1.8415                 1.3095
 Frc consts  --     0.8172                 1.1928                 0.8855
 IR Inten    --    12.1263                47.1338                45.4378

                    13                     14                     15
                    A"                     A'                     A'
 Frequencies --  1113.2688              1219.4777              1289.9329
 Red. masses --     1.1383                 4.2353                 2.4849
 Frc consts  --     0.8312                 3.7109                 2.4361
 IR Inten    --    11.3035               233.9857                17.2396

                    16                     17                     18
                    A'                     A'                     A'
 Frequencies --  1418.0844              1458.0443              1554.8722
 Red. masses --     1.2112                 1.4016                 1.2604
 Frc consts  --     1.4350                 1.7555                 1.7954
 IR Inten    --     4.9152                 0.1702                16.9955

                    19                     20                     21
                    A'                     A'                     A'
 Frequencies --  1825.7519              1904.3322              3323.0558
 Red. masses --     4.8647                 7.1034                 1.0609
 Frc consts  --     9.5541                15.1775                 6.9022
 IR Inten    --    10.5602                53.9682                 1.8950

                    22                     23                     24
                    A'                     A'                     A'
 Frequencies --  3362.0847              3420.2735              3430.2299
 Red. masses --     1.0950                 1.1167                 1.0979
 Frc consts  --     7.2924                 7.6971                 7.6112
 IR Inten    --     2.2586                 5.3670                 3.2176

 - Thermochemistry -
 -------------------
 Temperature   298.150 Kelvin.  Pressure   1.00000 Atm.
 Atom     1 has atomic number  6 and mass  12.00000

 Molecular mass:   105.99856 amu.
 Principal axes and moments of inertia in atomic units:
                           1         2         3
     Eigenvalues --   497.55009 774.994921272.54501
           X           -0.69502   0.71899   0.00000
           Y            0.71899   0.69502   0.00000
           Z            0.00000   0.00000   1.00000
 This molecule is an asymmetric top.
 Rotational symmetry number  1.
 Warning -- assumption of classical behavior for rotation
           may cause significant error
 Rotational temperatures (Kelvin)      0.17408     0.11176     0.06806
 Rotational constants (GHZ):           3.62726     2.32871     1.41821
 Zero-point vibrational energy     194013.2 (Joules/Mol)
                                   46.37028 (Kcal/Mol)
 Warning -- explicit consideration of   7 degrees of freedom as
           vibrations may cause significant error
 Vibrational temperatures:    198.17   312.86   404.17   443.39   630.83
          (Kelvin)            679.17   820.08  1138.44  1148.30  1414.52
                             1508.58  1541.36  1601.74  1754.55  1855.92
                             2040.30  2097.80  2237.11  2626.85  2739.91
                             4781.13  4837.28  4921.00  4935.33

 Zero-point correction=                           0.073896 (Hartree/Particle)
 Thermal correction to Energy=                    0.079806
 Thermal correction to Enthalpy=                  0.080750
 Thermal correction to Gibbs Free Energy=         0.043593
 Sum of electronic and zero-point Energies=           -712.631022
 Sum of electronic and thermal Energies=              -712.625112
 Sum of electronic and thermal Enthalpies=            -712.624168
 Sum of electronic and thermal Free Energies=         -712.661324

                     E (Thermal)             CV                S
                      KCal/Mol        Cal/Mol-Kelvin    Cal/Mol-Kelvin
 Total                   50.079             20.104             78.202
 Electronic               0.000              0.000              0.000
 Translational            0.889              2.981             39.892
 Rotational               0.889              2.981             27.686
 Vibrational             48.301             14.142             10.624
 Vibration     1          0.614              1.916              2.835
 Vibration     2          0.646              1.814              1.980
 Vibration     3          0.681              1.709              1.528
 Vibration     4          0.698              1.658              1.372
 Vibration     5          0.799              1.386              0.832
 Vibration     6          0.829              1.312              0.732
 Vibration     7          0.926              1.096              0.504

 Optimization completed.
    -- Stationary point found.
 Normal termination of Gaussian 09 at Sat Oct 26 19:18:32 2024.
