 Gaussian 09, Revision A.01,
 Gaussian 09:  EM64L-G09RevA.01  8-May-2009

 ------------------------------------------------
 # opt freq=noraman hf/6-31G(d) geom=connectivity
 ------------------------------------------------

 -------------------
 Title Card Required
 -------------------
 Symbolic Z-matrix:
 Charge =  0 Multiplicity = 1

 SCF Done:  E(RHF) =  -712.651587907     A.U. after   13 cycles
 SCF Done:  E(RHF) =  -712.663345600     A.U. after   14 cycles
 SCF Done:  E(RHF) =  -712.663727305     A.U. after   11 cycles
 SCF Done:  E(RHF) =  -712.663760958     A.U. after   10 cycles
 SCF Done:  E(RHF) =  -712.663762022     A.U. after    9 cycles
 Optimization completed.
    -- Stationary point found.
 Normal termination of Gaussian 09 at Sat Oct 26 19:18:24 2024.

 -----------------------------------------------------------------
 #N Geom=AllCheck Guess=TCheck SCRF=Check GenChk RHF/6-31G(d) Freq
 -----------------------------------------------------------------

 Title Card Required
 -------------------
 Redundant internal coordinates taken from checkpoint file:
 5-base2.chk
 Charge =  0 Multiplicity = 1

                         Standard orientation:
 ---------------------------------------------------------------------
 Center     Atomic      Atomic             Coordinates (Angstroms)
 Number     Number       Type             X           Y           Z
 ---------------------------------------------------------------------
      1          6           0       -0.378260    1.435026    0.000000
      2          6           0        0.000000    0.173260    0.000000
      3          6           0       -0.933082   -0.959515    0.000000
      4          1           0       -1.967743   -0.668882    0.000000
      5          6           0       -0.607998   -2.239216    0.000000
      6          1           0        0.409790   -2.580498    0.000000
      7          1           0       -1.373745   -2.992602    0.000000
      8          9           0       -1.663429    1.763645    0.000000
      9         17           0        1.714332   -0.139434    0.000000
     10          1           0        0.274951    2.282219    0.000000
 ---------------------------------------------------------------------

 SCF Done:  E(RHF) =  -712.663762022     A.U. after    1 cycles

 The electronic state is 1-A'.
 Alpha  occ. eigenvalues -- -104.83605 -26.32895 -11.34042 -11.30960 -11.25347
 Alpha  occ. eigenvalues --  -11.23801 -10.56943  -8.03886  -8.03550  -8.03536
 Alpha  occ. eigenvalues --   -1.64541  -1.18294  -1.06312  -1.01866  -0.86511
 Alpha  occ. eigenvalues --   -0.77652  -0.74433  -0.70746  -0.70595  -0.62227
 Alpha  occ. eigenvalues --   -0.60124  -0.57563  -0.52977  -0.51801  -0.46444
 Alpha  occ. eigenvalues --   -0.42291  -0.33626
 Alpha virt. eigenvalues --    0.11549   0.19716   0.25094   0.26907   0.28628
 Alpha virt. eigenvalues --    0.29566   0.32649   0.37625   0.45650   0.49272
 Alpha virt. eigenvalues --    0.53008   0.59025   0.62591   0.63452   0.66109

 Mulliken atomic charges:
              1
     1  C    0.232095
     2  C   -0.199019
     3  C   -0.134590
     4  H    0.226448
     5  C   -0.397181
     6  H    0.209311
     7  H    0.192229
     8  F   -0.353858
     9  Cl   0.003934
    10  H    0.220632
 Sum of Mulliken atomic charges =   0.00000

 Dipole moment (field-independent basis, Debye):
    X=             -0.2950    Y=             -0.1020    Z=              0.0000  Tot=              0.3121
 Quadrupole moment (field-independent basis, Debye-Ang):
   XX=            -42.6776   YY=            -36.5537   ZZ=            -43.6610
   XY=              2.8937   XZ=              0.0000   YZ=              0.0000

  Exact polarizability:  52.277  -5.617  79.202   0.000   0.000  21.188
 Approx polarizability:  45.921  -6.614  63.788   0.000   0.000  22.716

                     1                      2                      3
                    A"                     A'                     A'
 Frequencies --   134.1264               221.1256               283.6784
 Red. masses --     2.1273                 5.1410                 7.0262
 Frc consts  --     0.0225                 0.1481                 0.3331
 IR Inten    --     0.0474                 2.9751                 3.4056

                     4                      5                      6
                    A"                     A"                     A'
 Frequencies --   307.3401               437.2905               475.8825
 Red. masses --     5.8611                 1.8628                 8.1007
 Frc consts  --     0.3262                 0.2099                 1.0809
 IR Inten    --     4.5257                15.6344                 0.4856

                     7                      8                      9
                    A'                     A'                     A"
 Frequencies --   576.3318               796.7133               802.9769
 Red. masses --     3.7221                 5.2408                 2.0961
 Frc consts  --     0.7284                 1.9600                 0.7963
 IR Inten    --     4.4959                 9.7707                 0.7363

                    10                     11                     12
                    A"                     A'                     A"
 Frequencies --   991.9856              1063.2677              1090.6522
 Red. masses --     1.4117                 1.8934                 1.3052
 Frc consts  --     0.8185                 1.2612                 0.9147
 IR Inten    --    11.8856                47.4974                54.9996

                    13                     14                     15
                    A"                     A'                     A'
 Frequencies --  1131.1062              1238.1465              1305.1324
 Red. masses --     1.1405                 4.0935                 2.5907
 Frc consts  --     0.8597                 3.6974                 2.6000
 IR Inten    --    11.1025               213.4803                15.6877

                    16                     17                     18
                    A'                     A'                     A'
 Frequencies --  1447.8120              1488.6498              1591.5905
 Red. masses --     1.2207                 1.3934                 1.2605
 Frc consts  --     1.5076                 1.8193                 1.8812
 IR Inten    --     4.5907                 0.2889                13.6530

                    19                     20                     21
                    A'                     A'                     A'
 Frequencies --  1840.5838              1912.3396              3355.2238
 Red. masses --     4.4683                 6.5517                 1.0605
 Frc consts  --     8.9188                14.1166                 7.0340
 IR Inten    --    13.6658                51.2941                 4.0580

                    22                     23                     24
                    A'                     A'                     A'
 Frequencies --  3385.8331              3440.9133              3459.3585
 Red. masses --     1.0943                 1.1168                 1.0974
 Frc consts  --     7.3915                 7.7907                 7.7376
 IR Inten    --     3.0975                 9.1881                 2.2693

 - Thermochemistry -
 -------------------
 Temperature   298.150 Kelvin.  Pressure   1.00000 Atm.
 Atom     1 has atomic number  6 and mass  12.00000

 Molecular mass:   105.99856 amu.
 Principal axes and moments of inertia in atomic units:
                           1         2         3
     Eigenvalues --   496.14842 772.053191268.20160
           X            0.71038   0.70382   0.00000
           Y           -0.70382   0.71038   0.00000
           Z            0.00000   0.00000   1.00000
 This molecule is an asymmetric top.
 Rotational symmetry number  1.
 Warning -- assumption of classical behavior for rotation
           may cause significant error
 Rotational temperatures (Kelvin)      0.17457     0.11219     0.06830
 Rotational constants (GHZ):           3.63750     2.33759     1.42307
 Zero-point vibrational energy     196056.3 (Joules/Mol)
                                   46.85859 (Kcal/Mol)
 Warning -- explicit consideration of   7 degrees of freedom as
           vibrations may cause significant error
 Vibrational temperatures:    192.98   318.15   408.15   442.19   629.16
          (Kelvin)            684.69   829.21  1146.29  1155.30  1427.24
                             1529.80  1569.20  1627.41  1781.41  1877.79
                             2083.08  2141.83  2289.94  2648.19  2751.43
                             4827.41  4871.45  4950.70  4977.24

 Zero-point correction=                           0.074674 (Hartree/Particle)
 Thermal correction to Energy=                    0.080563
 Thermal correction to Enthalpy=                  0.081507
 Thermal correction to Gibbs Free Energy=         0.044377
 Sum of electronic and zero-point Energies=           -712.589088
 Sum of electronic and thermal Energies=              -712.583199
 Sum of electronic and thermal Enthalpies=            -712.582255
 Sum of electronic and thermal Free Energies=         -712.619385

                     E (Thermal)             CV                S
                      KCal/Mol        Cal/Mol-Kelvin    Cal/Mol-Kelvin
 Total                   50.554             19.959             78.146
 Electronic               0.000              0.000              0.000
 Translational            0.889              2.981             39.892
 Rotational               0.889              2.981             27.676
 Vibrational             48.776             13.998             10.578
 Vibration     1          0.613              1.919              2.886
 Vibration     2          0.648              1.809              1.950
 Vibration     3          0.682              1.704              1.511
 Vibration     4          0.697              1.660              1.377
 Vibration     5          0.798              1.389              0.835
 Vibration     6          0.833              1.304              0.721
 Vibration     7          0.933              1.082              0.492

 Optimization completed.
    -- Stationary point found.
 Normal termination of Gaussian 09 at Sat Oct 26 19:18:28 2024.
