 Gaussian 09, Revision A.01,
 Gaussian 09:  EM64L-G09RevA.01  8-May-2009

 ---------------------------------------------
 # opt freq=noraman hf/6-31G geom=connectivity
 ---------------------------------------------

 -------------------
 Title Card Required
 -------------------
 Symbolic Z-matrix:
 Charge =  0 Multiplicity = 1

 SCF Done:  E(RHF) =  -712.544602287     A.U. after   13 cycles
 SCF Done:  E(RHF) =  -712.556618736     A.U. after   15 cycles
 SCF Done:  E(RHF) =  -712.557492740     A.U. after   14 cycles
 SCF Done:  E(RHF) =  -712.557565529     A.U. after   11 cycles
 SCF Done:  E(RHF) =  -712.557569489     A.U. after    9 cycles
 Optimization completed.
    -- Stationary point found.
 Normal termination of Gaussian 09 at Sat Oct 26 20:15:20 2024.

 --------------------------------------------------------------
 #N Geom=AllCheck Guess=TCheck SCRF=Check GenChk RHF/6-31G Freq
 --------------------------------------------------------------

 Title Card Required
 -------------------
 Redundant internal coordinates taken from checkpoint file:
 5-base1.chk
 Charge =  0 Multiplicity = 1

                         Standard orientation:
 ---------------------------------------------------------------------
 Center     Atomic      Atomic             Coordinates (Angstroms)
 Number     Number       Type             X           Y           Z
 ---------------------------------------------------------------------
      1          6           0       -0.177753    1.482137    0.000000
      2          6           0        0.000000    0.177490    0.000000
      3          6           0       -1.064163   -0.818355    0.000000
      4          1           0       -2.048542   -0.390309    0.000000
      5          6           0       -0.912200   -2.134380    0.000000
      6          1           0        0.048622   -2.608489    0.000000
      7          1           0       -1.768262   -2.779364    0.000000
      8          9           0       -1.452204    1.996522    0.000000
      9         17           0        1.717001   -0.392256    0.000000
     10          1           0        0.573702    2.236456    0.000000
 ---------------------------------------------------------------------

 SCF Done:  E(RHF) =  -712.557569489     A.U. after    1 cycles

 The electronic state is 1-A'.
 Alpha  occ. eigenvalues -- -104.83656 -26.31921 -11.35626 -11.33761 -11.26708
 Alpha  occ. eigenvalues --  -11.25073 -10.57605  -8.04453  -8.04060  -8.04032
 Alpha  occ. eigenvalues --   -1.62861  -1.18661  -1.07446  -1.03456  -0.87245
 Alpha  occ. eigenvalues --   -0.77430  -0.73256  -0.71048  -0.69341  -0.62960
 Alpha  occ. eigenvalues --   -0.60366  -0.57615  -0.53288  -0.51758  -0.47166
 Alpha  occ. eigenvalues --   -0.43535  -0.34824
 Alpha virt. eigenvalues --    0.09754   0.16340   0.24117   0.26375   0.27525
 Alpha virt. eigenvalues --    0.29169   0.31077   0.37306   0.47148   0.48814
 Alpha virt. eigenvalues --    0.52306   0.62411   0.62466   0.64101   0.66404

 Mulliken atomic charges:
              1
     1  C    0.263943
     2  C   -0.329436
     3  C   -0.112730
     4  H    0.235840
     5  C   -0.354672
     6  H    0.202869
     7  H    0.181475
     8  F   -0.426959
     9  Cl   0.101743
    10  H    0.237925
 Sum of Mulliken atomic charges =   0.00000

 Dipole moment (field-independent basis, Debye):
    X=             -0.1652    Y=             -0.5015    Z=              0.0000  Tot=              0.5280
 Quadrupole moment (field-independent basis, Debye-Ang):
   XX=            -43.8681   YY=            -38.3128   ZZ=            -44.1242
   XY=              5.4787   XZ=              0.0000   YZ=              0.0000

  Exact polarizability:  52.082  -3.086  80.188   0.000   0.000  16.916
 Approx polarizability:  43.020  -5.374  64.375   0.000   0.000  15.344

                     1                      2                      3
                    A"                     A'                     A'
 Frequencies --   137.0880               220.0469               277.0061
 Red. masses --     2.1377                 5.2481                 7.0627
 Frc consts  --     0.0237                 0.1497                 0.3193
 IR Inten    --     0.0277                 4.1931                 5.3262

                     4                      5                      6
                    A"                     A"                     A'
 Frequencies --   295.1341               454.7223               457.7884
 Red. masses --     5.9458                 1.8263                11.3095
 Frc consts  --     0.3051                 0.2225                 1.3964
 IR Inten    --     8.7126                21.9983                 2.0209

                     7                      8                      9
                    A'                     A'                     A"
 Frequencies --   566.8650               789.0629               831.5174
 Red. masses --     3.3720                 5.7089                 1.9626
 Frc consts  --     0.6384                 2.0942                 0.7995
 IR Inten    --     4.5036                17.3601                 0.3250

                    10                     11                     12
                    A"                     A'                     A"
 Frequencies --  1004.8705              1048.9109              1130.4625
 Red. masses --     1.4394                 2.3757                 1.1484
 Frc consts  --     0.8564                 1.5400                 0.8647
 IR Inten    --    20.9862                77.7864                95.8882

                    13                     14                     15
                    A"                     A'                     A'
 Frequencies --  1171.3310              1188.5211              1291.4701
 Red. masses --     1.3362                 3.8742                 2.0813
 Frc consts  --     1.0802                 3.2243                 2.0453
 IR Inten    --     0.1838               134.4637                 3.7065

                    16                     17                     18
                    A'                     A'                     A'
 Frequencies --  1470.7607              1482.8524              1609.2949
 Red. masses --     1.2188                 1.3536                 1.2362
 Frc consts  --     1.5533                 1.7536                 1.8863
 IR Inten    --     4.5038                 0.0983                17.5311

                    19                     20                     21
                    A'                     A'                     A'
 Frequencies --  1834.0567              1917.4966              3350.9049
 Red. masses --     4.4096                 7.0382                 1.0615
 Frc consts  --     8.7392                15.2469                 7.0224
 IR Inten    --     6.2617                17.7764                 1.7159

                    22                     23                     24
                    A'                     A'                     A'
 Frequencies --  3376.5630              3442.7709              3488.5006
 Red. masses --     1.0946                 1.1156                 1.0994
 Frc consts  --     7.3530                 7.7905                 7.8828
 IR Inten    --     3.2591                 7.9317                 3.8301

 - Thermochemistry -
 -------------------
 Temperature   298.150 Kelvin.  Pressure   1.00000 Atm.
 Atom     1 has atomic number  6 and mass  12.00000

 Molecular mass:   105.99856 amu.
 Principal axes and moments of inertia in atomic units:
                           1         2         3
     Eigenvalues --   501.70846 801.226281302.93474
           X           -0.63879   0.76938   0.00000
           Y            0.76938   0.63879   0.00000
           Z            0.00000   0.00000   1.00000
 This molecule is an asymmetric top.
 Rotational symmetry number  1.
 Warning -- assumption of classical behavior for rotation
           may cause significant error
 Rotational temperatures (Kelvin)      0.17264     0.10810     0.06648
 Rotational constants (GHZ):           3.59719     2.25247     1.38514
 Zero-point vibrational energy     196414.8 (Joules/Mol)
                                   46.94427 (Kcal/Mol)
 Warning -- explicit consideration of   7 degrees of freedom as
           vibrations may cause significant error
 Vibrational temperatures:    197.24   316.60   398.55   424.63   654.24
          (Kelvin)            658.65   815.59  1135.28  1196.37  1445.78
                             1509.15  1626.48  1685.28  1710.01  1858.14
                             2116.09  2133.49  2315.41  2638.80  2758.85
                             4821.20  4858.12  4953.37  5019.17

 Zero-point correction=                           0.074810 (Hartree/Particle)
 Thermal correction to Energy=                    0.080715
 Thermal correction to Enthalpy=                  0.081659
 Thermal correction to Gibbs Free Energy=         0.044463
 Sum of electronic and zero-point Energies=           -712.482759
 Sum of electronic and thermal Energies=              -712.476854
 Sum of electronic and thermal Enthalpies=            -712.475910
 Sum of electronic and thermal Free Energies=         -712.513106

                     E (Thermal)             CV                S
                      KCal/Mol        Cal/Mol-Kelvin    Cal/Mol-Kelvin
 Total                   50.650             19.948             78.286
 Electronic               0.000              0.000              0.000
 Translational            0.889              2.981             39.892
 Rotational               0.889              2.981             27.751
 Vibrational             48.872             13.987             10.643
 Vibration     1          0.614              1.916              2.844
 Vibration     2          0.647              1.811              1.959
 Vibration     3          0.678              1.716              1.552
 Vibration     4          0.689              1.683              1.444
 Vibration     5          0.813              1.350              0.782
 Vibration     6          0.816              1.344              0.773
 Vibration     7          0.923              1.103              0.510

 Optimization completed.
    -- Stationary point found.
 Normal termination of Gaussian 09 at Sat Oct 26 20:15:23 2024.
