 Gaussian 09, Revision A.01,
 Gaussian 09:  EM64L-G09RevA.01  8-May-2009

 ---------------------------------------------
 # opt freq=noraman hf/6-31G geom=connectivity
 ---------------------------------------------

 -------------------
 Title Card Required
 -------------------
 Symbolic Z-matrix:
 Charge =  0 Multiplicity = 1

 SCF Done:  E(RHF) =  -712.544201249     A.U. after   14 cycles
 SCF Done:  E(RHF) =  -712.555042837     A.U. after   14 cycles
 SCF Done:  E(RHF) =  -712.555515211     A.U. after   11 cycles
 SCF Done:  E(RHF) =  -712.555556249     A.U. after   10 cycles
 SCF Done:  E(RHF) =  -712.555558932     A.U. after    9 cycles
 Optimization completed.
    -- Stationary point found.
 Normal termination of Gaussian 09 at Sat Oct 26 20:16:22 2024.

 --------------------------------------------------------------
 #N Geom=AllCheck Guess=TCheck SCRF=Check GenChk RHF/6-31G Freq
 --------------------------------------------------------------

 Title Card Required
 -------------------
 Redundant internal coordinates taken from checkpoint file:
 6-base1.chk
 Charge =  0 Multiplicity = 1

                         Standard orientation:
 ---------------------------------------------------------------------
 Center     Atomic      Atomic             Coordinates (Angstroms)
 Number     Number       Type             X           Y           Z
 ---------------------------------------------------------------------
      1          6           0       -1.132358    1.012457    0.000000
      2          6           0        0.000000    0.340840    0.000000
      3          6           0        1.303481    1.000140    0.000000
      4          1           0        1.246051    2.074702    0.000000
      5          6           0        2.490156    0.412521    0.000000
      6          1           0        2.607851   -0.652148    0.000000
      7          1           0        3.387696    0.998283    0.000000
      8         17           0       -0.048883   -1.456136    0.000000
      9          9           0       -2.352971    0.406692    0.000000
     10          1           0       -1.201523    2.077504    0.000000
 ---------------------------------------------------------------------

 SCF Done:  E(RHF) =  -712.555558932     A.U. after    1 cycles

 The electronic state is 1-A'.
 Alpha  occ. eigenvalues -- -104.83094 -26.31672 -11.35697 -11.33598 -11.27403
 Alpha  occ. eigenvalues --  -11.25267 -10.57033  -8.03886  -8.03475  -8.03463
 Alpha  occ. eigenvalues --   -1.62912  -1.18508  -1.07663  -1.03753  -0.86086
 Alpha  occ. eigenvalues --   -0.79348  -0.72689  -0.70858  -0.69148  -0.62670
 Alpha  occ. eigenvalues --   -0.61824  -0.56772  -0.52982  -0.52130  -0.46349
 Alpha  occ. eigenvalues --   -0.43526  -0.34820
 Alpha virt. eigenvalues --    0.10113   0.16567   0.23370   0.24276   0.27114
 Alpha virt. eigenvalues --    0.29826   0.31493   0.37007   0.47115   0.48696
 Alpha virt. eigenvalues --    0.55022   0.60628   0.63245   0.63748   0.66442

 Mulliken atomic charges:
              1
     1  C    0.286591
     2  C   -0.337628
     3  C   -0.114944
     4  H    0.204941
     5  C   -0.360656
     6  H    0.206843
     7  H    0.180333
     8  Cl   0.127227
     9  F   -0.415536
    10  H    0.222829
 Sum of Mulliken atomic charges =   0.00000

 Dipole moment (field-independent basis, Debye):
    X=              2.2233    Y=              2.8726    Z=              0.0000  Tot=              3.6325
 Quadrupole moment (field-independent basis, Debye-Ang):
   XX=            -42.8039   YY=            -37.3062   ZZ=            -44.1278
   XY=             -1.1876   XZ=              0.0000   YZ=              0.0000

  Exact polarizability:  76.091 -10.797  56.207   0.000   0.000  16.940
 Approx polarizability:  60.413 -10.110  47.614   0.000   0.000  15.411

                     1                      2                      3
                    A"                     A'                     A'
 Frequencies --   117.9581               220.8271               254.2886
 Red. masses --     2.7096                 8.8776                 5.8573
 Frc consts  --     0.0222                 0.2551                 0.2232
 IR Inten    --     0.3228                 2.2151                 0.3987

                     4                      5                      6
                    A"                     A"                     A'
 Frequencies --   301.0711               506.4495               510.1484
 Red. masses --     2.6761                 2.4977                 5.0425
 Frc consts  --     0.1429                 0.3775                 0.7732
 IR Inten    --     2.2015                21.5011                 5.5040

                     7                      8                      9
                    A'                     A'                     A"
 Frequencies --   606.2509               688.6691               794.2594
 Red. masses --     4.6202                 5.2875                 1.7765
 Frc consts  --     1.0005                 1.4775                 0.6603
 IR Inten    --    14.9561                30.4326                 0.7524

                    10                     11                     12
                    A"                     A'                     A"
 Frequencies --  1000.9686              1111.6673              1121.3645
 Red. masses --     1.4779                 1.7981                 1.1141
 Frc consts  --     0.8724                 1.3092                 0.8254
 IR Inten    --    14.8558                 9.4658                97.8400

                    13                     14                     15
                    A"                     A'                     A'
 Frequencies --  1159.1204              1205.0680              1306.3936
 Red. masses --     1.3913                 8.1428                 2.4584
 Frc consts  --     1.1013                 6.9671                 2.4720
 IR Inten    --     4.7045               147.4784                17.2729

                    16                     17                     18
                    A'                     A'                     A'
 Frequencies --  1448.1921              1488.8215              1608.8620
 Red. masses --     1.2662                 1.2230                 1.2174
 Frc consts  --     1.5646                 1.5972                 1.8566
 IR Inten    --    12.1710                 4.7219                14.5244

                    19                     20                     21
                    A'                     A'                     A'
 Frequencies --  1844.8175              1923.2615              3331.3839
 Red. masses --     4.4642                 7.1968                 1.0817
 Frc consts  --     8.9516                15.6843                 7.0729
 IR Inten    --     4.6865                53.5111                 5.2156

                    22                     23                     24
                    A'                     A'                     A'
 Frequencies --  3358.3740              3445.1343              3454.4007
 Red. masses --     1.0735                 1.1158                 1.0963
 Frc consts  --     7.1338                 7.8028                 7.7079
 IR Inten    --     4.9768                 7.3603                 6.2289

 - Thermochemistry -
 -------------------
 Temperature   298.150 Kelvin.  Pressure   1.00000 Atm.
 Atom     1 has atomic number  6 and mass  12.00000

 Molecular mass:   105.99856 amu.
 Principal axes and moments of inertia in atomic units:
                           1         2         3
     Eigenvalues --   410.19717 843.593041253.79020
           X            1.00000   0.00104   0.00000
           Y           -0.00104   1.00000   0.00000
           Z            0.00000   0.00000   1.00000
 This molecule is an asymmetric top.
 Rotational symmetry number  1.
 Rotational temperatures (Kelvin)      0.21115     0.10267     0.06908
 Rotational constants (GHZ):           4.39969     2.13935     1.43943
 Zero-point vibrational energy     196233.9 (Joules/Mol)
                                   46.90104 (Kcal/Mol)
 Warning -- explicit consideration of   7 degrees of freedom as
           vibrations may cause significant error
 Vibrational temperatures:    169.72   317.72   365.86   433.17   728.67
          (Kelvin)            733.99   872.26   990.84  1142.76  1440.17
                             1599.44  1613.39  1667.71  1733.82  1879.61
                             2083.62  2142.08  2314.79  2654.28  2767.14
                             4793.11  4831.95  4956.77  4970.11

 Zero-point correction=                           0.074742 (Hartree/Particle)
 Thermal correction to Energy=                    0.080640
 Thermal correction to Enthalpy=                  0.081584
 Thermal correction to Gibbs Free Energy=         0.044398
 Sum of electronic and zero-point Energies=           -712.480817
 Sum of electronic and thermal Energies=              -712.474919
 Sum of electronic and thermal Enthalpies=            -712.473975
 Sum of electronic and thermal Free Energies=         -712.511161

                     E (Thermal)             CV                S
                      KCal/Mol        Cal/Mol-Kelvin    Cal/Mol-Kelvin
 Total                   50.602             19.870             78.264
 Electronic               0.000              0.000              0.000
 Translational            0.889              2.981             39.892
 Rotational               0.889              2.981             27.564
 Vibrational             48.825             13.908             10.809
 Vibration     1          0.608              1.934              3.134
 Vibration     2          0.648              1.809              1.952
 Vibration     3          0.665              1.756              1.701
 Vibration     4          0.693              1.672              1.411
 Vibration     5          0.862              1.236              0.642
 Vibration     6          0.865              1.228              0.633
 Vibration     7          0.965              1.019              0.439

 Optimization completed.
    -- Stationary point found.
 Normal termination of Gaussian 09 at Sat Oct 26 20:16:25 2024.
