 Gaussian 09, Revision A.01,
 Gaussian 09:  EM64L-G09RevA.01  8-May-2009

 ------------------------------------------------
 # opt freq=noraman hf/6-31G(d) geom=connectivity
 ------------------------------------------------

 -------------------
 Title Card Required
 -------------------
 Symbolic Z-matrix:
 Charge =  0 Multiplicity = 1

 SCF Done:  E(RHF) =  -712.651328084     A.U. after   13 cycles
 SCF Done:  E(RHF) =  -712.662846781     A.U. after   14 cycles
 SCF Done:  E(RHF) =  -712.663145153     A.U. after   11 cycles
 SCF Done:  E(RHF) =  -712.663175705     A.U. after   10 cycles
 SCF Done:  E(RHF) =  -712.663176400     A.U. after    8 cycles
 Optimization completed.
    -- Stationary point found.
 Normal termination of Gaussian 09 at Sat Oct 26 19:19:23 2024.

 -----------------------------------------------------------------
 #N Geom=AllCheck Guess=TCheck SCRF=Check GenChk RHF/6-31G(d) Freq
 -----------------------------------------------------------------

 Title Card Required
 -------------------
 Redundant internal coordinates taken from checkpoint file:
 6-base2.chk
 Charge =  0 Multiplicity = 1

                         Standard orientation:
 ---------------------------------------------------------------------
 Center     Atomic      Atomic             Coordinates (Angstroms)
 Number     Number       Type             X           Y           Z
 ---------------------------------------------------------------------
      1          6           0       -1.109025    1.013070    0.000000
      2          6           0        0.000000    0.302259    0.000000
      3          6           0        1.318508    0.950072    0.000000
      4          1           0        1.277064    2.026671    0.000000
      5          6           0        2.492522    0.347044    0.000000
      6          1           0        2.593540   -0.721483    0.000000
      7          1           0        3.398948    0.923340    0.000000
      8         17           0       -0.090320   -1.429940    0.000000
      9          9           0       -2.313931    0.480152    0.000000
     10          1           0       -1.120761    2.084416    0.000000
 ---------------------------------------------------------------------

 SCF Done:  E(RHF) =  -712.663176400     A.U. after    1 cycles

 The electronic state is 1-A'.
 Alpha  occ. eigenvalues -- -104.83202 -26.32721 -11.34182 -11.30920 -11.25925
 Alpha  occ. eigenvalues --  -11.23874 -10.56533  -8.03481  -8.03132  -8.03130
 Alpha  occ. eigenvalues --   -1.64614  -1.18117  -1.06650  -1.02156  -0.85682
 Alpha  occ. eigenvalues --   -0.79076  -0.73658  -0.70831  -0.70459  -0.62685
 Alpha  occ. eigenvalues --   -0.60936  -0.56578  -0.52697  -0.52270  -0.45838
 Alpha  occ. eigenvalues --   -0.42460  -0.33596
 Alpha virt. eigenvalues --    0.11987   0.19583   0.24332   0.25419   0.27887
 Alpha virt. eigenvalues --    0.30301   0.32662   0.37656   0.46851   0.49051
 Alpha virt. eigenvalues --    0.53617   0.59635   0.63139   0.63230   0.66146

 Mulliken atomic charges:
              1
     1  C    0.251374
     2  C   -0.204410
     3  C   -0.131608
     4  H    0.203218
     5  C   -0.404641
     6  H    0.211747
     7  H    0.191031
     8  Cl   0.018661
     9  F   -0.342546
    10  H    0.207173
 Sum of Mulliken atomic charges =   0.00000

 Dipole moment (field-independent basis, Debye):
    X=              1.4047    Y=              2.3050    Z=              0.0000  Tot=              2.6993
 Quadrupole moment (field-independent basis, Debye-Ang):
   XX=            -41.1098   YY=            -36.7962   ZZ=            -43.6677
   XY=             -0.9950   XZ=              0.0000   YZ=              0.0000

  Exact polarizability:  75.630 -10.658  56.143   0.000   0.000  21.163
 Approx polarizability:  60.973  -9.518  49.577   0.000   0.000  22.765

                     1                      2                      3
                    A"                     A'                     A'
 Frequencies --   118.6591               221.6237               254.3625
 Red. masses --     2.7588                 7.5717                 6.4341
 Frc consts  --     0.0229                 0.2191                 0.2453
 IR Inten    --     0.1633                 1.5790                 0.5160

                     4                      5                      6
                    A"                     A"                     A'
 Frequencies --   308.9567               501.8552               505.1416
 Red. masses --     2.5385                 2.7006                 4.6670
 Frc consts  --     0.1428                 0.4007                 0.7016
 IR Inten    --     0.7189                15.4241                 4.2015

                     7                      8                      9
                    A'                     A'                     A"
 Frequencies --   628.3151               720.2193               771.7486
 Red. masses --     3.9326                 6.6924                 1.8564
 Frc consts  --     0.9147                 2.0453                 0.6514
 IR Inten    --    11.4767                31.5522                 1.2708

                    10                     11                     12
                    A"                     A"                     A'
 Frequencies --   982.2793              1084.7107              1102.6220
 Red. masses --     1.4517                 1.3013                 1.6367
 Frc consts  --     0.8253                 0.9021                 1.1724
 IR Inten    --     9.9103                58.7671                 7.5121

                    13                     14                     15
                    A"                     A'                     A'
 Frequencies --  1118.5205              1264.6854              1309.4790
 Red. masses --     1.1441                 6.1182                 2.9301
 Frc consts  --     0.8433                 5.7655                 2.9602
 IR Inten    --    12.0022               145.1451                73.0048

                    16                     17                     18
                    A'                     A'                     A'
 Frequencies --  1442.4041              1481.0209              1588.9256
 Red. masses --     1.3384                 1.2396                 1.2267
 Frc consts  --     1.6406                 1.6019                 1.8247
 IR Inten    --     6.4293                10.0478                10.2065

                    19                     20                     21
                    A'                     A'                     A'
 Frequencies --  1851.4180              1919.5561              3341.3383
 Red. masses --     4.4770                 6.7186                 1.0790
 Frc consts  --     9.0417                14.5857                 7.0974
 IR Inten    --     9.6071               116.6919                 6.5499

                    22                     23                     24
                    A'                     A'                     A'
 Frequencies --  3362.4496              3434.9970              3442.7790
 Red. masses --     1.0747                 1.0950                 1.1171
 Frc consts  --     7.1591                 7.6123                 7.8012
 IR Inten    --     6.1112                 5.8874                 9.3865

 - Thermochemistry -
 -------------------
 Temperature   298.150 Kelvin.  Pressure   1.00000 Atm.
 Atom     1 has atomic number  6 and mass  12.00000

 Molecular mass:   105.99856 amu.
 Principal axes and moments of inertia in atomic units:
                           1         2         3
     Eigenvalues --   396.80234 831.824641228.62698
           X            0.99958   0.02912   0.00000
           Y           -0.02912   0.99958   0.00000
           Z            0.00000   0.00000   1.00000
 This molecule is an asymmetric top.
 Rotational symmetry number  1.
 Rotational temperatures (Kelvin)      0.21828     0.10413     0.07050
 Rotational constants (GHZ):           4.54821     2.16962     1.46891
 Zero-point vibrational energy     195936.8 (Joules/Mol)
                                   46.83001 (Kcal/Mol)
 Warning -- explicit consideration of   6 degrees of freedom as
           vibrations may cause significant error
 Vibrational temperatures:    170.72   318.87   365.97   444.52   722.06
          (Kelvin)            726.79   904.00  1036.23  1110.37  1413.28
                             1560.65  1586.43  1609.30  1819.60  1884.05
                             2075.30  2130.86  2286.11  2663.77  2761.81
                             4807.43  4837.81  4942.19  4953.38

 Zero-point correction=                           0.074628 (Hartree/Particle)
 Thermal correction to Energy=                    0.080512
 Thermal correction to Enthalpy=                  0.081456
 Thermal correction to Gibbs Free Energy=         0.044336
 Sum of electronic and zero-point Energies=           -712.588548
 Sum of electronic and thermal Energies=              -712.582665
 Sum of electronic and thermal Enthalpies=            -712.581720
 Sum of electronic and thermal Free Energies=         -712.618841

                     E (Thermal)             CV                S
                      KCal/Mol        Cal/Mol-Kelvin    Cal/Mol-Kelvin
 Total                   50.522             19.868             78.126
 Electronic               0.000              0.000              0.000
 Translational            0.889              2.981             39.892
 Rotational               0.889              2.981             27.497
 Vibrational             48.744             13.906             10.737
 Vibration     1          0.609              1.934              3.122
 Vibration     2          0.648              1.808              1.946
 Vibration     3          0.665              1.755              1.700
 Vibration     4          0.698              1.657              1.368
 Vibration     5          0.857              1.246              0.654
 Vibration     6          0.860              1.239              0.645

 Optimization completed.
    -- Stationary point found.
 Normal termination of Gaussian 09 at Sat Oct 26 19:19:28 2024.
