 Gaussian 09, Revision A.01,
 Gaussian 09:  EM64L-G09RevA.01  8-May-2009

 -----------------------------------------------
 # opt freq=noraman hf/cc-pvdz geom=connectivity
 -----------------------------------------------

 -------------------
 Title Card Required
 -------------------
 Symbolic Z-matrix:
 Charge =  0 Multiplicity = 1

 SCF Done:  E(RHF) =  -712.692974593     A.U. after   13 cycles
 SCF Done:  E(RHF) =  -712.703689084     A.U. after   14 cycles
 SCF Done:  E(RHF) =  -712.703995482     A.U. after   11 cycles
 SCF Done:  E(RHF) =  -712.704025507     A.U. after   10 cycles
 SCF Done:  E(RHF) =  -712.704026527     A.U. after    8 cycles
 Optimization completed.
    -- Stationary point found.
 Normal termination of Gaussian 09 at Sat Oct 26 18:17:24 2024.

 ----------------------------------------------------------------
 #N Geom=AllCheck Guess=TCheck SCRF=Check GenChk RHF/CC-pVDZ Freq
 ----------------------------------------------------------------

 Title Card Required
 -------------------
 Redundant internal coordinates taken from checkpoint file:
 6-base4.chk
 Charge =  0 Multiplicity = 1

                         Standard orientation:
 ---------------------------------------------------------------------
 Center     Atomic      Atomic             Coordinates (Angstroms)
 Number     Number       Type             X           Y           Z
 ---------------------------------------------------------------------
      1          6           0       -1.114261    1.012074    0.000000
      2          6           0        0.000000    0.303750    0.000000
      3          6           0        1.317196    0.954872    0.000000
      4          1           0        1.273832    2.038292    0.000000
      5          6           0        2.494372    0.350096    0.000000
      6          1           0        2.590742   -0.726414    0.000000
      7          1           0        3.405556    0.932746    0.000000
      8         17           0       -0.086864   -1.433471    0.000000
      9          9           0       -2.317395    0.478702    0.000000
     10          1           0       -1.120730    2.091307    0.000000
 ---------------------------------------------------------------------

 SCF Done:  E(RHF) =  -712.704026527     A.U. after    1 cycles

 The electronic state is 1-A'.
 Alpha  occ. eigenvalues -- -104.84010 -26.32781 -11.34604 -11.31245 -11.26563
 Alpha  occ. eigenvalues --  -11.24777 -10.56693  -8.03461  -8.03107  -8.03097
 Alpha  occ. eigenvalues --   -1.65382  -1.18223  -1.06848  -1.02363  -0.85931
 Alpha  occ. eigenvalues --   -0.79152  -0.73842  -0.70894  -0.70819  -0.62734
 Alpha  occ. eigenvalues --   -0.60932  -0.56509  -0.52840  -0.52196  -0.45956
 Alpha  occ. eigenvalues --   -0.42639  -0.33851
 Alpha virt. eigenvalues --    0.11231   0.17029   0.21438   0.22033   0.22816
 Alpha virt. eigenvalues --    0.24963   0.27475   0.36159   0.42664   0.44633
 Alpha virt. eigenvalues --    0.50956   0.59783   0.63535   0.63771   0.68423

 Mulliken atomic charges:
              1
     1  C    0.410022
     2  C   -0.232144
     3  C   -0.058810
     4  H    0.030418
     5  C    0.005586
     6  H    0.064681
     7  H    0.055990
     8  Cl  -0.078280
     9  F   -0.247003
    10  H    0.049539
 Sum of Mulliken atomic charges =   0.00000

 Dipole moment (field-independent basis, Debye):
    X=              1.4130    Y=              2.2299    Z=              0.0000  Tot=              2.6399
 Quadrupole moment (field-independent basis, Debye-Ang):
   XX=            -41.5366   YY=            -36.9302   ZZ=            -43.9502
   XY=             -0.9953   XZ=              0.0000   YZ=              0.0000

  Exact polarizability:  77.760 -10.720  57.769   0.000   0.000  22.811
 Approx polarizability:  62.913  -9.235  51.754   0.000   0.000  25.624

                     1                      2                      3
                    A"                     A'                     A'
 Frequencies --   123.2897               218.3056               251.2370
 Red. masses --     2.8342                 7.6774                 6.3027
 Frc consts  --     0.0254                 0.2156                 0.2344
 IR Inten    --     0.1759                 1.6311                 0.5493

                     4                      5                      6
                    A"                     A"                     A'
 Frequencies --   313.4268               498.9020               501.3616
 Red. masses --     2.4593                 2.7001                 4.5856
 Frc consts  --     0.1423                 0.3960                 0.6791
 IR Inten    --     0.4744                16.8414                 4.8389

                     7                      8                      9
                    A'                     A'                     A"
 Frequencies --   621.0841               711.7575               765.4798
 Red. masses --     3.9773                 6.5865                 1.8534
 Frc consts  --     0.9039                 1.9659                 0.6399
 IR Inten    --    12.1531                32.3312                 1.4542

                    10                     11                     12
                    A"                     A"                     A'
 Frequencies --   973.7783              1064.6602              1086.7927
 Red. masses --     1.4611                 1.3068                 1.5963
 Frc consts  --     0.8163                 0.8728                 1.1109
 IR Inten    --    10.3388                48.9308                 5.9778

                    13                     14                     15
                    A"                     A'                     A'
 Frequencies --  1100.7344              1250.9690              1294.7123
 Red. masses --     1.1397                 6.4449                 2.8208
 Frc consts  --     0.8136                 5.9424                 2.7859
 IR Inten    --    12.6055               170.7260                69.7667

                    16                     17                     18
                    A'                     A'                     A'
 Frequencies --  1414.9044              1450.0278              1551.3943
 Red. masses --     1.3576                 1.2195                 1.2226
 Frc consts  --     1.6013                 1.5107                 1.7338
 IR Inten    --     7.7873                 8.9513                14.0061

                    19                     20                     21
                    A'                     A'                     A'
 Frequencies --  1836.7376              1912.7489              3317.4040
 Red. masses --     4.8984                 7.2295                 1.0676
 Frc consts  --     9.7364                15.5838                 6.9222
 IR Inten    --     5.8271               125.5552                 2.7469

                    22                     23                     24
                    A'                     A'                     A'
 Frequencies --  3334.9410              3407.8385              3421.7047
 Red. masses --     1.0873                 1.0951                 1.1171
 Frc consts  --     7.1247                 7.4930                 7.7059
 IR Inten    --     5.1869                 5.3209                 5.5435

 - Thermochemistry -
 -------------------
 Temperature   298.150 Kelvin.  Pressure   1.00000 Atm.
 Atom     1 has atomic number  6 and mass  12.00000

 Molecular mass:   105.99856 amu.
 Principal axes and moments of inertia in atomic units:
                           1         2         3
     Eigenvalues --   398.75934 833.660661232.42000
           X            0.99958   0.02908   0.00000
           Y           -0.02908   0.99958   0.00000
           Z            0.00000   0.00000   1.00000
 This molecule is an asymmetric top.
 Rotational symmetry number  1.
 Rotational temperatures (Kelvin)      0.21721     0.10390     0.07028
 Rotational constants (GHZ):           4.52589     2.16484     1.46439
 Zero-point vibrational energy     193939.7 (Joules/Mol)
                                   46.35271 (Kcal/Mol)
 Warning -- explicit consideration of   6 degrees of freedom as
           vibrations may cause significant error
 Vibrational temperatures:    177.39   314.09   361.47   450.95   717.81
          (Kelvin)            721.35   893.60  1024.06  1101.35  1401.05
                             1531.81  1563.65  1583.71  1799.86  1862.80
                             2035.73  2086.26  2232.11  2642.65  2752.02
                             4773.00  4798.23  4903.11  4923.06

 Zero-point correction=                           0.073868 (Hartree/Particle)
 Thermal correction to Energy=                    0.079771
 Thermal correction to Enthalpy=                  0.080715
 Thermal correction to Gibbs Free Energy=         0.043580
 Sum of electronic and zero-point Energies=           -712.630159
 Sum of electronic and thermal Energies=              -712.624256
 Sum of electronic and thermal Enthalpies=            -712.623312
 Sum of electronic and thermal Free Energies=         -712.660447

                     E (Thermal)             CV                S
                      KCal/Mol        Cal/Mol-Kelvin    Cal/Mol-Kelvin
 Total                   50.057             20.021             78.157
 Electronic               0.000              0.000              0.000
 Translational            0.889              2.981             39.892
 Rotational               0.889              2.981             27.507
 Vibrational             48.279             14.059             10.758
 Vibration     1          0.610              1.930              3.048
 Vibration     2          0.646              1.813              1.973
 Vibration     3          0.663              1.761              1.722
 Vibration     4          0.701              1.648              1.344
 Vibration     5          0.854              1.252              0.661
 Vibration     6          0.857              1.247              0.655

 Optimization completed.
    -- Stationary point found.
 Normal termination of Gaussian 09 at Sat Oct 26 18:17:30 2024.
