 Gaussian 09, Revision A.01,
 Gaussian 09:  EM64L-G09RevA.01  8-May-2009

 -----------------------------------------------
 # opt freq=noraman hf/cc-pvtz geom=connectivity
 -----------------------------------------------

 -------------------
 Title Card Required
 -------------------
 Symbolic Z-matrix:
 Charge =  0 Multiplicity = 1

 SCF Done:  E(RHF) =  -712.784604251     A.U. after   13 cycles
 SCF Done:  E(RHF) =  -712.797054408     A.U. after   14 cycles
 SCF Done:  E(RHF) =  -712.797410669     A.U. after   10 cycles
 SCF Done:  E(RHF) =  -712.797438909     A.U. after    9 cycles
 SCF Done:  E(RHF) =  -712.797439890     A.U. after    7 cycles
 Optimization completed.
    -- Stationary point found.
 Normal termination of Gaussian 09 at Sat Oct 26 19:21:58 2024.

 ----------------------------------------------------------------
 #N Geom=AllCheck Guess=TCheck SCRF=Check GenChk RHF/CC-pVTZ Freq
 ----------------------------------------------------------------

 Title Card Required
 -------------------
 Redundant internal coordinates taken from checkpoint file:
 6-base5.chk
 Charge =  0 Multiplicity = 1

                         Standard orientation:
 ---------------------------------------------------------------------
 Center     Atomic      Atomic             Coordinates (Angstroms)
 Number     Number       Type             X           Y           Z
 ---------------------------------------------------------------------
      1          6           0       -1.101909    1.014433    0.000000
      2          6           0        0.000000    0.298231    0.000000
      3          6           0        1.316045    0.942984    0.000000
      4          1           0        1.277186    2.017752    0.000000
      5          6           0        2.485001    0.337914    0.000000
      6          1           0        2.578337   -0.729589    0.000000
      7          1           0        3.390558    0.912367    0.000000
      8         17           0       -0.094289   -1.430395    0.000000
      9          9           0       -2.304517    0.496643    0.000000
     10          1           0       -1.097333    2.085035    0.000000
 ---------------------------------------------------------------------

 SCF Done:  E(RHF) =  -712.797439890     A.U. after    1 cycles

 The electronic state is 1-A'.
 Alpha  occ. eigenvalues -- -104.84538 -26.32675 -11.33695 -11.30752 -11.25677
 Alpha  occ. eigenvalues --  -11.23519 -10.57038  -8.03731  -8.03530  -8.03530
 Alpha  occ. eigenvalues --   -1.65640  -1.18381  -1.06962  -1.02469  -0.86167
 Alpha  occ. eigenvalues --   -0.79555  -0.74347  -0.71485  -0.71281  -0.63166
 Alpha  occ. eigenvalues --   -0.61222  -0.56808  -0.53163  -0.52416  -0.46135
 Alpha  occ. eigenvalues --   -0.42818  -0.34062
 Alpha virt. eigenvalues --    0.10918   0.13746   0.17109   0.18920   0.20618
 Alpha virt. eigenvalues --    0.21555   0.22564   0.30122   0.32321   0.34404
 Alpha virt. eigenvalues --    0.40572   0.40943   0.43666   0.44463   0.46390

 Mulliken atomic charges:
              1
     1  C    0.084435
     2  C    0.089475
     3  C   -0.133529
     4  H    0.160370
     5  C   -0.322046
     6  H    0.157228
     7  H    0.146242
     8  Cl  -0.132221
     9  F   -0.200747
    10  H    0.150793
 Sum of Mulliken atomic charges =   0.00000

 Dipole moment (field-independent basis, Debye):
    X=              1.3083    Y=              2.1374    Z=              0.0000  Tot=              2.5060
 Quadrupole moment (field-independent basis, Debye-Ang):
   XX=            -41.6153   YY=            -37.0380   ZZ=            -43.9676
   XY=             -0.9481   XZ=              0.0000   YZ=              0.0000

  Exact polarizability:  81.718 -10.044  61.314   0.000   0.000  32.259
 Approx polarizability:  66.595  -8.688  55.986   0.000   0.000  36.517

                     1                      2                      3
                    A"                     A'                     A'
 Frequencies --   126.4824               221.3083               251.4522
 Red. masses --     2.8712                 7.5503                 6.3948
 Frc consts  --     0.0271                 0.2179                 0.2382
 IR Inten    --     0.1705                 1.5449                 0.5109

                     4                      5                      6
                    A"                     A'                     A"
 Frequencies --   317.9917               503.6437               504.1049
 Red. masses --     2.4437                 4.6097                 2.6597
 Frc consts  --     0.1456                 0.6889                 0.3982
 IR Inten    --     0.2477                 4.4513                16.1503

                     7                      8                      9
                    A'                     A'                     A"
 Frequencies --   624.0155               715.5228               775.4729
 Red. masses --     3.9683                 6.5534                 1.8203
 Frc consts  --     0.9104                 1.9768                 0.6450
 IR Inten    --    12.6082                29.4826                 1.7107

                    10                     11                     12
                    A"                     A"                     A'
 Frequencies --   978.9694              1079.5793              1093.8511
 Red. masses --     1.4749                 1.2643                 1.6381
 Frc consts  --     0.8328                 0.8682                 1.1548
 IR Inten    --    15.4180                62.1766                 6.6160

                    13                     14                     15
                    A"                     A'                     A'
 Frequencies --  1113.8114              1255.1871              1299.2542
 Red. masses --     1.1828                 5.7244                 3.1204
 Frc consts  --     0.8646                 5.3137                 3.1035
 IR Inten    --     7.4504               135.1245                93.4955

                    16                     17                     18
                    A'                     A'                     A'
 Frequencies --  1427.7812              1466.9315              1568.6693
 Red. masses --     1.3417                 1.2298                 1.2285
 Frc consts  --     1.6116                 1.5592                 1.7811
 IR Inten    --     5.3910                 9.8146                13.8370

                    19                     20                     21
                    A'                     A'                     A'
 Frequencies --  1821.9835              1889.6306              3295.7681
 Red. masses --     4.4471                 6.7496                 1.0706
 Frc consts  --     8.6980                14.1998                 6.8516
 IR Inten    --     4.0204               135.2079                 3.5899

                    22                     23                     24
                    A'                     A'                     A'
 Frequencies --  3312.3640              3376.2701              3390.2964
 Red. masses --     1.0825                 1.0945                 1.1167
 Frc consts  --     6.9976                 7.3506                 7.5622
 IR Inten    --     4.6875                 5.5847                 6.8082

 - Thermochemistry -
 -------------------
 Temperature   298.150 Kelvin.  Pressure   1.00000 Atm.
 Atom     1 has atomic number  6 and mass  12.00000

 Molecular mass:   105.99856 amu.
 Principal axes and moments of inertia in atomic units:
                           1         2         3
     Eigenvalues --   396.89412 825.939151222.83327
           X            0.99934   0.03641   0.00000
           Y           -0.03641   0.99934   0.00000
           Z            0.00000   0.00000   1.00000
 This molecule is an asymmetric top.
 Rotational symmetry number  1.
 Rotational temperatures (Kelvin)      0.21823     0.10487     0.07083
 Rotational constants (GHZ):           4.54716     2.18508     1.47587
 Zero-point vibrational energy     193856.9 (Joules/Mol)
                                   46.33291 (Kcal/Mol)
 Warning -- explicit consideration of   6 degrees of freedom as
           vibrations may cause significant error
 Vibrational temperatures:    181.98   318.41   361.78   457.52   724.63
          (Kelvin)            725.29   897.82  1029.48  1115.73  1408.52
                             1553.27  1573.81  1602.52  1805.93  1869.33
                             2054.26  2110.58  2256.96  2621.42  2718.75
                             4741.87  4765.75  4857.69  4877.87

 Zero-point correction=                           0.073836 (Hartree/Particle)
 Thermal correction to Energy=                    0.079706
 Thermal correction to Enthalpy=                  0.080650
 Thermal correction to Gibbs Free Energy=         0.043597
 Sum of electronic and zero-point Energies=           -712.723604
 Sum of electronic and thermal Energies=              -712.717734
 Sum of electronic and thermal Enthalpies=            -712.716790
 Sum of electronic and thermal Free Energies=         -712.753843

                     E (Thermal)             CV                S
                      KCal/Mol        Cal/Mol-Kelvin    Cal/Mol-Kelvin
 Total                   50.016             19.905             77.985
 Electronic               0.000              0.000              0.000
 Translational            0.889              2.981             39.892
 Rotational               0.889              2.981             27.485
 Vibrational             48.239             13.944             10.608
 Vibration     1          0.611              1.927              2.999
 Vibration     2          0.648              1.809              1.948
 Vibration     3          0.663              1.760              1.720
 Vibration     4          0.704              1.639              1.320
 Vibration     5          0.859              1.242              0.649
 Vibration     6          0.859              1.241              0.648

 Optimization completed.
    -- Stationary point found.
 Normal termination of Gaussian 09 at Sat Oct 26 19:22:50 2024.
