 Gaussian 09, Revision A.01,
 Gaussian 09:  EM64L-G09RevA.01  8-May-2009

 --------------------------------------------------
 # opt freq=noraman hf/6-31G(d,p) geom=connectivity
 --------------------------------------------------

 -------------------
 Title Card Required
 -------------------
 Symbolic Z-matrix:
 Charge =  0 Multiplicity = 1

 SCF Done:  E(RHF) =  -712.658870011     A.U. after   13 cycles
 SCF Done:  E(RHF) =  -712.670253401     A.U. after   14 cycles
 SCF Done:  E(RHF) =  -712.670561257     A.U. after   11 cycles
 SCF Done:  E(RHF) =  -712.670592049     A.U. after    9 cycles
 SCF Done:  E(RHF) =  -712.670592785     A.U. after    8 cycles
 Optimization completed.
    -- Stationary point found.

 1\1\GINC-MALLOS69\FOpt\RHF\6-31G(d,p)\C4H4Cl1F1\MARLIN\26-Oct-2024\0\\
 # opt freq=noraman hf/6-31G(d,p) geom=connectivity\\Title Card Require
 d\\0,1\C,-2.0704646854,-1.6732070667,0.\C,-1.4341208994,-0.5198871479,
 0.\C,0.0336412288,-0.4610144045,0.\H,0.5108334025,-1.4274897634,0.\C,0
 .7776610663,0.6286427426,0.\H,0.3546180829,1.6154650228,0.\H,1.849404,
 0.5529524655,0.\Cl,-2.3387149617,0.960258354,0.\F,-3.3838416976,-1.777
 1843699,0.\H,-1.5677112664,-2.6200909126,0.\\Version=EM64L-G09RevA.01\
 State=1-A'\HF=-712.6705928\RMSD=3.910e-09\RMSF=4.554e-05\Dipole=0.9201

 Normal termination of Gaussian 09 at Sat Oct 26 20:17:23 2024.

 -------------------------------------------------------------------
 #N Geom=AllCheck Guess=TCheck SCRF=Check GenChk RHF/6-31G(d,p) Freq
 -------------------------------------------------------------------

 Title Card Required
 -------------------
 Redundant internal coordinates taken from checkpoint file:
 6-base3.chk
 Charge =  0 Multiplicity = 1

                         Standard orientation:
 ---------------------------------------------------------------------
 Center     Atomic      Atomic             Coordinates (Angstroms)
 Number     Number       Type             X           Y           Z
 ---------------------------------------------------------------------
      1          6           0       -1.108766    1.013800    0.000000
      2          6           0        0.000000    0.302661    0.000000
      3          6           0        1.318698    0.949830    0.000000
      4          1           0        1.278083    2.026927    0.000000
      5          6           0        2.491832    0.345947    0.000000
      6          1           0        2.589751   -0.723256    0.000000
      7          1           0        3.398216    0.922861    0.000000
      8         17           0       -0.090611   -1.429653    0.000000
      9          9           0       -2.313185    0.479810    0.000000
     10          1           0       -1.117574    2.085841    0.000000
 ---------------------------------------------------------------------

 SCF Done:  E(RHF) =  -712.670592785     A.U. after    1 cycles

 The electronic state is 1-A'.
 Alpha  occ. eigenvalues -- -104.83197 -26.32714 -11.34175 -11.30913 -11.25928
 Alpha  occ. eigenvalues --  -11.23892 -10.56527  -8.03474  -8.03126  -8.03124
 Alpha  occ. eigenvalues --   -1.64599  -1.18107  -1.06649  -1.02152  -0.85640
 Alpha  occ. eigenvalues --   -0.79007  -0.73603  -0.70796  -0.70445  -0.62638
 Alpha  occ. eigenvalues --   -0.60839  -0.56502  -0.52689  -0.52160  -0.45827
 Alpha  occ. eigenvalues --   -0.42460  -0.33601
 Alpha virt. eigenvalues --    0.11917   0.19590   0.24244   0.25370   0.27863
 Alpha virt. eigenvalues --    0.30318   0.32639   0.37637   0.46776   0.49016
 Alpha virt. eigenvalues --    0.53584   0.59607   0.63080   0.63225   0.66019

 Mulliken atomic charges:
              1
     1  C    0.314196
     2  C   -0.218860
     3  C   -0.080841
     4  H    0.149946
     5  C   -0.292665
     6  H    0.159230
     7  H    0.140697
     8  Cl   0.019307
     9  F   -0.346724
    10  H    0.155714
 Sum of Mulliken atomic charges =   0.00000

 Dipole moment (field-independent basis, Debye):
    X=              1.4088    Y=              2.3099    Z=              0.0000  Tot=              2.7056
 Quadrupole moment (field-independent basis, Debye-Ang):
   XX=            -41.1321   YY=            -36.7736   ZZ=            -43.6332
   XY=             -0.9779   XZ=              0.0000   YZ=              0.0000

  Exact polarizability:  75.989 -10.758  56.517   0.000   0.000  21.518
 Approx polarizability:  61.357  -9.622  49.998   0.000   0.000  23.298

                     1                      2                      3
                    A"                     A'                     A'
 Frequencies --   118.6396               221.9060               254.3684
 Red. masses --     2.7606                 7.5387                 6.4325
 Frc consts  --     0.0229                 0.2187                 0.2452
 IR Inten    --     0.1683                 1.5661                 0.5204

                     4                      5                      6
                    A"                     A"                     A'
 Frequencies --   309.1707               501.8323               505.0581
 Red. masses --     2.5339                 2.6883                 4.6528
 Frc consts  --     0.1427                 0.3989                 0.6993
 IR Inten    --     0.7309                15.5047                 4.2236

                     7                      8                      9
                    A'                     A'                     A"
 Frequencies --   627.8399               719.9087               770.7445
 Red. masses --     3.9280                 6.6707                 1.8572
 Frc consts  --     0.9123                 2.0369                 0.6500
 IR Inten    --    11.4954                31.5873                 1.1709

                    10                     11                     12
                    A"                     A"                     A'
 Frequencies --   980.8322              1083.5208              1099.3628
 Red. masses --     1.4558                 1.2879                 1.6263
 Frc consts  --     0.8252                 0.8909                 1.1580
 IR Inten    --     9.8814                59.2631                 7.2390

                    13                     14                     15
                    A"                     A'                     A'
 Frequencies --  1114.4817              1264.0823              1307.4580
 Red. masses --     1.1546                 5.8244                 3.0090
 Frc consts  --     0.8450                 5.4835                 3.0306
 IR Inten    --     9.8591               136.5566                82.4400

                    16                     17                     18
                    A'                     A'                     A'
 Frequencies --  1435.6026              1475.1830              1577.8743
 Red. masses --     1.3406                 1.2368                 1.2245
 Frc consts  --     1.6279                 1.5857                 1.7962
 IR Inten    --     5.9806                10.4344                11.2167

                    19                     20                     21
                    A'                     A'                     A'
 Frequencies --  1849.2089              1918.4165              3322.6861
 Red. masses --     4.5737                 6.8152                 1.0753
 Frc consts  --     9.2148                14.7779                 6.9944
 IR Inten    --     8.0836               116.3099                 5.1457

                    22                     23                     24
                    A'                     A'                     A'
 Frequencies --  3341.3792              3412.4772              3424.4567
 Red. masses --     1.0789                 1.0949                 1.1172
 Frc consts  --     7.0973                 7.5125                 7.7189
 IR Inten    --     5.9475                 6.1595                 8.5025

 - Thermochemistry -
 -------------------
 Temperature   298.150 Kelvin.  Pressure   1.00000 Atm.
 Atom     1 has atomic number  6 and mass  12.00000

 Molecular mass:   105.99856 amu.
 Principal axes and moments of inertia in atomic units:
                           1         2         3
     Eigenvalues --   396.72896 831.343571228.07253
           X            0.99957   0.02919   0.00000
           Y           -0.02919   0.99957   0.00000
           Z            0.00000   0.00000   1.00000
 This molecule is an asymmetric top.
 Rotational symmetry number  1.
 Rotational temperatures (Kelvin)      0.21832     0.10419     0.07053
 Rotational constants (GHZ):           4.54905     2.17087     1.46957
 Zero-point vibrational energy     195209.6 (Joules/Mol)
                                   46.65621 (Kcal/Mol)
 Warning -- explicit consideration of   6 degrees of freedom as
           vibrations may cause significant error
 Vibrational temperatures:    170.70   319.27   365.98   444.83   722.02
          (Kelvin)            726.66   903.32  1035.79  1108.93  1411.20
                             1558.94  1581.74  1603.49  1818.73  1881.14
                             2065.51  2122.46  2270.21  2660.60  2760.17
                             4780.60  4807.49  4909.79  4927.02

 Zero-point correction=                           0.074351 (Hartree/Particle)
 Thermal correction to Energy=                    0.080236
 Thermal correction to Enthalpy=                  0.081181
 Thermal correction to Gibbs Free Energy=         0.044060
 Sum of electronic and zero-point Energies=           -712.596241
 Sum of electronic and thermal Energies=              -712.590356
 Sum of electronic and thermal Enthalpies=            -712.589412
 Sum of electronic and thermal Free Energies=         -712.626533

                     E (Thermal)             CV                S
                      KCal/Mol        Cal/Mol-Kelvin    Cal/Mol-Kelvin
 Total                   50.349             19.887             78.128
 Electronic               0.000              0.000              0.000
 Translational            0.889              2.981             39.892
 Rotational               0.889              2.981             27.496
 Vibrational             48.572             13.925             10.741
 Vibration     1          0.609              1.934              3.122
 Vibration     2          0.648              1.808              1.943
 Vibration     3          0.665              1.755              1.700
 Vibration     4          0.699              1.656              1.367
 Vibration     5          0.857              1.246              0.654
 Vibration     6          0.860              1.239              0.646

 Optimization completed.
    -- Stationary point found.

 1\1\GINC-MALLOS69\Freq\RHF\6-31G(d,p)\C4H4Cl1F1\MARLIN\26-Oct-2024\0\\
 #N Geom=AllCheck Guess=TCheck SCRF=Check GenChk RHF/6-31G(d,p) Freq\\T
 itle Card Required\\0,1\C,-2.0704646854,-1.6732070667,0.\C,-1.43412089
 94,-0.5198871479,0.\C,0.0336412288,-0.4610144045,0.\H,0.5108334025,-1.
 4274897634,0.\C,0.7776610663,0.6286427426,0.\H,0.3546180829,1.61546502
 28,0.\H,1.849404,0.5529524655,0.\Cl,-2.3387149617,0.960258354,0.\F,-3.
 3838416976,-1.7771843699,0.\H,-1.5677112664,-2.6200909126,0.\\Version=
 EM64L-G09RevA.01\State=1-A'\HF=-712.6705928\RMSD=8.261e-10\RMSF=4.554e

 Normal termination of Gaussian 09 at Sat Oct 26 20:17:29 2024.
