 Gaussian 09, Revision A.01,
 Gaussian 09:  EM64L-G09RevA.01  8-May-2009

 -----------------------------------------------
 # opt freq=noraman hf/lanl2dz geom=connectivity
 -----------------------------------------------

 -------------------
 Title Card Required
 -------------------
 Symbolic Z-matrix:
 Charge =  0 Multiplicity = 1

 SCF Done:  E(RHF) =  -196.765876237     A.U. after   15 cycles
 SCF Done:  E(RHF) =  -196.770279677     A.U. after   12 cycles
 SCF Done:  E(RHF) =  -196.776486128     A.U. after   14 cycles
 SCF Done:  E(RHF) =  -196.778421042     A.U. after   13 cycles
 SCF Done:  E(RHF) =  -196.779281272     A.U. after   13 cycles
 SCF Done:  E(RHF) =  -196.780450341     A.U. after   13 cycles
 SCF Done:  E(RHF) =  -196.781360634     A.U. after   13 cycles
 SCF Done:  E(RHF) =  -196.781629040     A.U. after   12 cycles
 SCF Done:  E(RHF) =  -196.781806298     A.U. after   12 cycles
 SCF Done:  E(RHF) =  -196.781902863     A.U. after   12 cycles
 SCF Done:  E(RHF) =  -196.781952298     A.U. after   12 cycles
 SCF Done:  E(RHF) =  -196.781968392     A.U. after   11 cycles
 SCF Done:  E(RHF) =  -196.781974410     A.U. after   11 cycles
 SCF Done:  E(RHF) =  -196.781974687     A.U. after   10 cycles
 SCF Done:  E(RHF) =  -196.781974757     A.U. after    9 cycles
 SCF Done:  E(RHF) =  -196.781974839     A.U. after   10 cycles
 SCF Done:  E(RHF) =  -196.781974855     A.U. after    9 cycles
 SCF Done:  E(RHF) =  -196.781974859     A.U. after    8 cycles
 Optimization completed.
    -- Stationary point found.

 1\1\GINC-MALLOS73\FOpt\RHF\LANL2DZ\C2H4Br1F1Sn2\MARLIN\24-Oct-2024\0\\
 # opt freq=noraman hf/lanl2dz geom=connectivity\\Title Card Required\\
 0,1\C,1.1138517672,-2.3202606217,-0.0571109305\C,0.0833410251,-1.50640
 71113,0.0774431566\H,-0.875576168,-2.0027524121,0.0518903185\H,1.45302
 31427,1.1654474245,-0.3665295606\H,-2.4054603056,3.4305388413,0.144969
 6258\H,-3.6968226202,1.1195935842,0.542995869\Sn,0.0332806705,0.604520
 9814,0.4190272148\Sn,-2.3770550659,1.7793826704,-0.3493260004\F,0.9557
 378674,-3.6782271855,-0.2274220366\Br,2.9920236869,-1.8884351712,-0.03

 Normal termination of Gaussian 09 at Thu Oct 24 09:49:32 2024.

 ----------------------------------------------------------------
 #N Geom=AllCheck Guess=TCheck SCRF=Check GenChk RHF/LANL2DZ Freq
 ----------------------------------------------------------------

 Title Card Required
 -------------------
 Redundant internal coordinates taken from checkpoint file:
 1-lanl2dz.chk
 Charge =  0 Multiplicity = 1

                         Standard orientation:
 ---------------------------------------------------------------------
 Center     Atomic      Atomic             Coordinates (Angstroms)
 Number     Number       Type             X           Y           Z
 ---------------------------------------------------------------------
      1          6           0       -2.364529    1.041205    0.074496
      2          6           0       -1.056925    1.056624    0.254359
      3          1           0       -0.649502    2.040057    0.437118
      4          1           0       -0.350451   -1.725057   -0.733109
      5          1           0        4.037565   -1.082628    0.049684
      6          1           0        3.507202    1.388038    0.933447
      7         50           0        0.341299   -0.560660    0.321912
      8         50           0        2.958780    0.233687   -0.224160
      9          9           0       -3.120816    2.192288    0.107913
     10         35           0       -3.512363   -0.473981   -0.243402
 ---------------------------------------------------------------------

 SCF Done:  E(RHF) =  -196.781974859     A.U. after    1 cycles

 The electronic state is 1-A.
 Alpha  occ. eigenvalues --  -26.32125 -11.40895 -11.26483  -1.63859  -1.11227
 Alpha  occ. eigenvalues --   -1.01413  -0.80541  -0.71356  -0.70474  -0.69970
 Alpha  occ. eigenvalues --   -0.66620  -0.61224  -0.53671  -0.48378  -0.46337
 Alpha  occ. eigenvalues --   -0.44330  -0.44258  -0.39969  -0.39191  -0.28301
 Alpha virt. eigenvalues --   -0.03389   0.08173   0.08839   0.12779   0.12913
 Alpha virt. eigenvalues --    0.15454   0.17808   0.21808   0.25450   0.31362
 Alpha virt. eigenvalues --    0.31746   0.33014   0.33669   0.35419   0.37719

 Mulliken atomic charges:
              1
     1  C    0.163962
     2  C   -0.563012
     3  H    0.233646
     4  H   -0.175028
     5  H   -0.184259
     6  H   -0.185460
     7  Sn   0.632421
     8  Sn   0.349585
     9  F   -0.313630
    10  Br   0.041776
 Sum of Mulliken atomic charges =   0.00000

 Dipole moment (field-independent basis, Debye):
    X=              2.0882    Y=             -0.9958    Z=              0.1043  Tot=              2.3158
 Quadrupole moment (field-independent basis, Debye-Ang):
   XX=            -76.4149   YY=            -70.2295   ZZ=            -69.3700
   XY=              7.3561   XZ=             -4.5048   YZ=             -1.1972

  Exact polarizability: 223.268  34.607 100.903 -30.967  -0.767  63.849
 Approx polarizability: 167.543  34.581  96.547 -29.406  -0.733  59.427

                     1                      2                      3
                     A                      A                      A
 Frequencies --    11.3888                40.0766                75.4249
 Red. masses --    20.1740                16.6460                22.8101
 Frc consts  --     0.0015                 0.0158                 0.0765
 IR Inten    --     0.1482                 1.7879                 3.4529

                     4                      5                      6
                     A                      A                      A
 Frequencies --   135.1911               153.6830               203.3447
 Red. masses --     2.7116                 2.5936                 2.3896
 Frc consts  --     0.0292                 0.0361                 0.0582
 IR Inten    --     6.3623                 6.1229                67.8071

                     7                      8                      9
                     A                      A                      A
 Frequencies --   279.0251               304.2516               363.6952
 Red. masses --     1.8420                 2.3151                 7.2815
 Frc consts  --     0.0845                 0.1263                 0.5675
 IR Inten    --   161.9817                10.2459                 1.5483

                    10                     11                     12
                     A                      A                      A
 Frequencies --   394.8031               479.6841               500.3303
 Red. masses --     1.1732                 2.5521                 1.4003
 Frc consts  --     0.1077                 0.3460                 0.2065
 IR Inten    --    16.1183                27.5084                 6.9055

                    13                     14                     15
                     A                      A                      A
 Frequencies --   524.3651               665.2138               781.3235
 Red. masses --     3.3062                 1.2735                 2.9003
 Frc consts  --     0.5356                 0.3320                 1.0432
 IR Inten    --     1.1943                91.1104                72.9637

                    16                     17                     18
                     A                      A                      A
 Frequencies --   829.1237               966.1949              1102.1100
 Red. masses --     1.0216                 1.3002                 8.6312
 Frc consts  --     0.4138                 0.7152                 6.1769
 IR Inten    --   248.7757                46.7407               167.1149

                    19                     20                     21
                     A                      A                      A
 Frequencies --  1347.0820              1793.4530              1910.1089
 Red. masses --     1.3249                10.4834                 1.0162
 Frc consts  --     1.4165                19.8670                 2.1844
 IR Inten    --    62.0063               538.8326               228.1898

                    22                     23                     24
                     A                      A                      A
 Frequencies --  1912.0427              1938.3622              3325.4248
 Red. masses --     1.0167                 1.0164                 1.0883
 Frc consts  --     2.1899                 2.2500                 7.0908
 IR Inten    --   263.8100               238.3922                15.6320

 - Thermochemistry -
 -------------------
 Temperature   298.150 Kelvin.  Pressure   1.00000 Atm.
 Atom     1 has atomic number  6 and mass  12.00000

 Molecular mass:   361.75164 amu.
 Principal axes and moments of inertia in atomic units:
                           1         2         3
     Eigenvalues --   765.611688352.294748937.64331
           X            0.99996  -0.00839   0.00232
           Y            0.00830   0.99924   0.03817
           Z           -0.00264  -0.03815   0.99927
 This molecule is an asymmetric top.
 Rotational symmetry number  1.
 Warning -- assumption of classical behavior for rotation
           may cause significant error
 Rotational temperatures (Kelvin)      0.11313     0.01037     0.00969
 Rotational constants (GHZ):           2.35725     0.21608     0.20193
 Zero-point vibrational energy     119840.1 (Joules/Mol)
                                   28.64248 (Kcal/Mol)
 Warning -- explicit consideration of  13 degrees of freedom as
           vibrations may cause significant error
 Vibrational temperatures:     16.39    57.66   108.52   194.51   221.12
          (Kelvin)            292.57   401.45   437.75   523.28   568.03
                              690.16   719.86   754.44   957.09  1124.15
                             1192.92  1390.14  1585.69  1938.15  2580.38
                             2748.22  2751.00  2788.87  4784.54

 Zero-point correction=                           0.045645 (Hartree/Particle)
 Thermal correction to Energy=                    0.055451
 Thermal correction to Enthalpy=                  0.056395
 Thermal correction to Gibbs Free Energy=         0.004831
 Sum of electronic and zero-point Energies=           -196.736330
 Sum of electronic and thermal Energies=              -196.726524
 Sum of electronic and thermal Enthalpies=            -196.725580
 Sum of electronic and thermal Free Energies=         -196.777144

                     E (Thermal)             CV                S
                      KCal/Mol        Cal/Mol-Kelvin    Cal/Mol-Kelvin
 Total                   34.796             30.772            108.526
 Electronic               0.000              0.000              0.000
 Translational            0.889              2.981             43.551
 Rotational               0.889              2.981             32.413
 Vibrational             33.018             24.810             32.562
 Vibration     1          0.593              1.987              7.753
 Vibration     2          0.594              1.981              5.255
 Vibration     3          0.599              1.965              4.007
 Vibration     4          0.613              1.918              2.871
 Vibration     5          0.619              1.899              2.626
 Vibration     6          0.639              1.835              2.103
 Vibration     7          0.679              1.712              1.540
 Vibration     8          0.695              1.666              1.393
 Vibration     9          0.737              1.547              1.106
 Vibration    10          0.762              1.481              0.982
 Vibration    11          0.836              1.295              0.711
 Vibration    12          0.856              1.249              0.657
 Vibration    13          0.879              1.196              0.600

 Optimization completed.
    -- Stationary point found.

 1\1\GINC-MALLOS73\Freq\RHF\LANL2DZ\C2H4Br1F1Sn2\MARLIN\24-Oct-2024\0\\
 #N Geom=AllCheck Guess=TCheck SCRF=Check GenChk RHF/LANL2DZ Freq\\Titl
 e Card Required\\0,1\C,1.1138517672,-2.3202606217,-0.0571109305\C,0.08
 33410251,-1.5064071113,0.0774431566\H,-0.875576168,-2.0027524121,0.051
 8903185\H,1.4530231427,1.1654474245,-0.3665295606\H,-2.4054603056,3.43
 05388413,0.1449696258\H,-3.6968226202,1.1195935842,0.542995869\Sn,0.03
 32806705,0.6045209814,0.4190272148\Sn,-2.3770550659,1.7793826704,-0.34
 93260004\F,0.9557378674,-3.6782271855,-0.2274220366\Br,2.9920236869,-1

 Normal termination of Gaussian 09 at Thu Oct 24 09:49:35 2024.
