 Gaussian 09, Revision A.01,
 Gaussian 09:  EM64L-G09RevA.01  8-May-2009

 --------------------------------------------
 # opt freq=noraman mp2/lanl2dz geom=allcheck
 --------------------------------------------

 Title Card Required
 -------------------
 Redundant internal coordinates taken from checkpoint file:
 1-mp2.chk
 Charge =  0 Multiplicity = 1

 SCF Done:  E(RHF) =  -196.781974859     A.U. after   16 cycles
 E2 =    -0.4081397231D+00 EUMP2 =    -0.19719011458179D+03
 SCF Done:  E(RHF) =  -196.777270881     A.U. after   13 cycles
 E2 =    -0.4175357195D+00 EUMP2 =    -0.19719480660068D+03
 SCF Done:  E(RHF) =  -196.776808957     A.U. after   12 cycles
 E2 =    -0.4182475644D+00 EUMP2 =    -0.19719505652125D+03
 SCF Done:  E(RHF) =  -196.776528906     A.U. after   12 cycles
 E2 =    -0.4186003884D+00 EUMP2 =    -0.19719512929487D+03
 SCF Done:  E(RHF) =  -196.776553120     A.U. after   11 cycles
 E2 =    -0.4185805508D+00 EUMP2 =    -0.19719513367066D+03
 SCF Done:  E(RHF) =  -196.776604478     A.U. after   11 cycles
 E2 =    -0.4185370937D+00 EUMP2 =    -0.19719514157159D+03
 SCF Done:  E(RHF) =  -196.776647009     A.U. after   10 cycles
 E2 =    -0.4184964515D+00 EUMP2 =    -0.19719514346086D+03
 SCF Done:  E(RHF) =  -196.776647513     A.U. after   10 cycles
 E2 =    -0.4184962996D+00 EUMP2 =    -0.19719514381252D+03
 SCF Done:  E(RHF) =  -196.776639192     A.U. after   10 cycles
 E2 =    -0.4185047125D+00 EUMP2 =    -0.19719514390495D+03
 SCF Done:  E(RHF) =  -196.776635457     A.U. after    9 cycles
 E2 =    -0.4185084957D+00 EUMP2 =    -0.19719514395282D+03
 Optimization completed.
    -- Stationary point found.
 Normal termination of Gaussian 09 at Thu Oct 24 10:23:29 2024.

 ---------------------------------------------------------------------
 #N Geom=AllCheck Guess=TCheck SCRF=Check GenChk RMP2(FC)/LANL2DZ Freq
 ---------------------------------------------------------------------

 Title Card Required
 -------------------
 Redundant internal coordinates taken from checkpoint file:
 1-mp2.chk
 Charge =  0 Multiplicity = 1

                         Standard orientation:
 ---------------------------------------------------------------------
 Center     Atomic      Atomic             Coordinates (Angstroms)
 Number     Number       Type             X           Y           Z
 ---------------------------------------------------------------------
      1          6           0       -2.369269    1.019352    0.122643
      2          6           0       -1.038126    1.059373    0.398535
      3          1           0       -0.669189    2.061649    0.668408
      4          1           0       -0.331562   -1.834840   -0.408911
      5          1           0        4.035205   -1.053582   -0.041420
      6          1           0        3.486721    1.548662    0.631631
      7         50           0        0.395176   -0.536235    0.476261
      8         50           0        2.898691    0.226712   -0.326937
      9          9           0       -3.169770    2.209065    0.175682
     10         35           0       -3.492635   -0.502848   -0.372117
 ---------------------------------------------------------------------

 SCF Done:  E(RHF) =  -196.776635457     A.U. after    1 cycles
 E2 =    -0.4185084939D+00 EUMP2 =    -0.19719514395097D+03
 E2 =    -0.4185084939D+00 EUMP2 =    -0.19719514395097D+03

 The electronic state is 1-A.
 Alpha  occ. eigenvalues --  -26.31339 -11.41587 -11.27706  -1.60869  -1.09952
 Alpha  occ. eigenvalues --   -1.00647  -0.79035  -0.70014  -0.68542  -0.68471
 Alpha  occ. eigenvalues --   -0.66539  -0.60884  -0.53547  -0.48021  -0.46641
 Alpha  occ. eigenvalues --   -0.44611  -0.44366  -0.40297  -0.38979  -0.28310
 Alpha virt. eigenvalues --   -0.03394   0.08256   0.08633   0.11531   0.12153
 Alpha virt. eigenvalues --    0.14759   0.17518   0.21045   0.23894   0.30333
 Alpha virt. eigenvalues --    0.31452   0.32823   0.33179   0.35418   0.37443

 Mulliken atomic charges:
              1
     1  C    0.168384
     2  C   -0.557137
     3  H    0.236108
     4  H   -0.169960
     5  H   -0.180485
     6  H   -0.181933
     7  Sn   0.617433
     8  Sn   0.355310
     9  F   -0.341582
    10  Br   0.053862
 Sum of Mulliken atomic charges =   0.00000

 Dipole moment (field-independent basis, Debye):
    X=              2.3983    Y=             -1.2744    Z=              0.1728  Tot=              2.7214
 Quadrupole moment (field-independent basis, Debye-Ang):
   XX=            -77.0886   YY=            -71.1561   ZZ=            -68.4641
   XY=              7.8375   XZ=             -4.0719   YZ=             -1.1455

  Exact polarizability: 201.652  22.551 101.265 -26.916   0.746  64.512
 Approx polarizability: 163.591  31.049  98.617 -35.596  -2.540  67.252

                     1                      2                      3
                     A                      A                      A
 Frequencies --    13.6615                40.6163                78.8605
 Red. masses --    21.0854                15.6322                25.2774
 Frc consts  --     0.0023                 0.0152                 0.0926
 IR Inten    --     0.0098                 0.7291                 0.0531

                     4                      5                      6
                     A                      A                      A
 Frequencies --   138.0017               178.0735               208.0445
 Red. masses --     1.8521                17.0168                 1.8717
 Frc consts  --     0.0208                 0.3179                 0.0477
 IR Inten    --     3.4627                 0.6523                12.1931

                     7                      8                      9
                     A                      A                      A
 Frequencies --   273.2103               328.2804               335.7536
 Red. masses --    17.7896                 1.1692                 5.0466
 Frc consts  --     0.7824                 0.0742                 0.3352
 IR Inten    --    33.2324                32.2162                 0.4357

                    10                     11                     12
                     A                      A                      A
 Frequencies --   385.1098               441.7573               453.1173
 Red. masses --     1.2343                 2.1013                 4.4750
 Frc consts  --     0.1079                 0.2416                 0.5413
 IR Inten    --    21.3842                 3.6745                 7.8903

                    13                     14                     15
                     A                      A                      A
 Frequencies --   480.0166               616.0363               722.3192
 Red. masses --     1.3376                 1.2306                 3.2199
 Frc consts  --     0.1816                 0.2752                 0.9898
 IR Inten    --     3.5530                68.8411                64.8450

                    16                     17                     18
                     A                      A                      A
 Frequencies --   773.2223               823.0444               949.3968
 Red. masses --     1.0211                 1.2423                 8.5932
 Frc consts  --     0.3597                 0.4958                 4.5636
 IR Inten    --   225.8691                40.4525               148.1678

                    19                     20                     21
                     A                      A                      A
 Frequencies --  1245.6940              1565.4919              1843.3482
 Red. masses --     1.2793                10.7930                 1.0140
 Frc consts  --     1.1696                15.5845                 2.0299
 IR Inten    --    33.1010               423.4040               212.7969

                    22                     23                     24
                     A                      A                      A
 Frequencies --  1852.3957              1863.7030              3143.7842
 Red. masses --     1.0179                 1.0164                 1.0871
 Frc consts  --     2.0578                 2.0800                 6.3305
 IR Inten    --   105.2286               224.6299                14.1244

 - Thermochemistry -
 -------------------
 Temperature   298.150 Kelvin.  Pressure   1.00000 Atm.
 Atom     1 has atomic number  6 and mass  12.00000

 Molecular mass:   361.75164 amu.
 Principal axes and moments of inertia in atomic units:
                           1         2         3
     Eigenvalues --   869.189758302.679088789.06115
           X            0.99997  -0.00811   0.00151
           Y            0.00803   0.99866   0.05122
           Z           -0.00192  -0.05121   0.99869
 This molecule is an asymmetric top.
 Rotational symmetry number  1.
 Warning -- assumption of classical behavior for rotation
           may cause significant error
 Rotational temperatures (Kelvin)      0.09965     0.01043     0.00985
 Rotational constants (GHZ):           2.07635     0.21737     0.20534
 Zero-point vibrational energy     112167.5 (Joules/Mol)
                                   26.80867 (Kcal/Mol)
 Warning -- explicit consideration of  14 degrees of freedom as
           vibrations may cause significant error
 Vibrational temperatures:     19.66    58.44   113.46   198.55   256.21
          (Kelvin)            299.33   393.09   472.32   483.07   554.09
                              635.59   651.93   690.64   886.34  1039.25
                             1112.49  1184.18  1365.97  1792.27  2252.39
                             2652.16  2665.18  2681.45  4523.20

 Zero-point correction=                           0.042722 (Hartree/Particle)
 Thermal correction to Energy=                    0.052701
 Thermal correction to Enthalpy=                  0.053645
 Thermal correction to Gibbs Free Energy=         0.002069
 Sum of electronic and zero-point Energies=           -197.152422
 Sum of electronic and thermal Energies=              -197.142443
 Sum of electronic and thermal Enthalpies=            -197.141499
 Sum of electronic and thermal Free Energies=         -197.193074

                     E (Thermal)             CV                S
                      KCal/Mol        Cal/Mol-Kelvin    Cal/Mol-Kelvin
 Total                   33.070             31.810            108.549
 Electronic               0.000              0.000              0.000
 Translational            0.889              2.981             43.551
 Rotational               0.889              2.981             32.517
 Vibrational             31.293             25.848             32.482
 Vibration     1          0.593              1.986              7.391
 Vibration     2          0.594              1.981              5.229
 Vibration     3          0.600              1.963              3.919
 Vibration     4          0.614              1.915              2.831
 Vibration     5          0.629              1.869              2.349
 Vibration     6          0.641              1.828              2.061
 Vibration     7          0.676              1.723              1.576
 Vibration     8          0.712              1.619              1.269
 Vibration     9          0.717              1.604              1.232
 Vibration    10          0.754              1.502              1.019
 Vibration    11          0.802              1.379              0.821
 Vibration    12          0.812              1.354              0.786
 Vibration    13          0.836              1.294              0.710
 Vibration    14          0.976              0.998              0.423

 Normal termination of Gaussian 09 at Thu Oct 24 10:23:44 2024.
