 Gaussian 09, Revision A.01,
 Gaussian 09:  EM64L-G09RevA.01  8-May-2009

 ---------------------------------------
 # opt freq=noraman hf/sdd geom=allcheck
 ---------------------------------------

 Title Card Required
 -------------------
 Redundant internal coordinates taken from checkpoint file:
 1-sdd.chk
 Charge =  0 Multiplicity = 1

 SCF Done:  E(RHF) =  -196.997249293     A.U. after   15 cycles
 SCF Done:  E(RHF) =  -196.997422164     A.U. after   12 cycles
 SCF Done:  E(RHF) =  -196.997438644     A.U. after   11 cycles
 SCF Done:  E(RHF) =  -196.997439595     A.U. after   11 cycles
 SCF Done:  E(RHF) =  -196.997447567     A.U. after   11 cycles
 SCF Done:  E(RHF) =  -196.997450119     A.U. after   10 cycles
 SCF Done:  E(RHF) =  -196.997450640     A.U. after    9 cycles
 SCF Done:  E(RHF) =  -196.997450755     A.U. after    9 cycles
 SCF Done:  E(RHF) =  -196.997450776     A.U. after    8 cycles
 Optimization completed.
    -- Stationary point found.
 Normal termination of Gaussian 09 at Thu Oct 24 12:27:17 2024.

 ------------------------------------------------------------
 #N Geom=AllCheck Guess=TCheck SCRF=Check GenChk RHF/SDD Freq
 ------------------------------------------------------------

 Title Card Required
 -------------------
 Redundant internal coordinates taken from checkpoint file:
 1-sdd.chk
 Charge =  0 Multiplicity = 1

                         Standard orientation:
 ---------------------------------------------------------------------
 Center     Atomic      Atomic             Coordinates (Angstroms)
 Number     Number       Type             X           Y           Z
 ---------------------------------------------------------------------
      1          6           0       -2.369749    1.041700    0.080768
      2          6           0       -1.062469    1.060314    0.261837
      3          1           0       -0.655878    2.042241    0.451860
      4          1           0       -0.334479   -1.725308   -0.761234
      5          1           0        4.064804   -1.055473    0.003559
      6          1           0        3.516221    1.411344    0.917420
      7         50           0        0.347553   -0.578149    0.324501
      8         50           0        2.950951    0.244856   -0.225101
      9          9           0       -3.130135    2.190508    0.120184
     10         35           0       -3.507182   -0.466708   -0.249111
 ---------------------------------------------------------------------

 SCF Done:  E(RHF) =  -196.997450776     A.U. after    1 cycles

 The electronic state is 1-A.
 Alpha  occ. eigenvalues --  -26.31979 -11.40843 -11.26870  -1.63592  -1.12499
 Alpha  occ. eigenvalues --   -1.03393  -0.80575  -0.71423  -0.70246  -0.69962
 Alpha  occ. eigenvalues --   -0.67166  -0.61589  -0.53768  -0.48295  -0.46028
 Alpha  occ. eigenvalues --   -0.44346  -0.44139  -0.39826  -0.39009  -0.28105
 Alpha virt. eigenvalues --   -0.03132   0.08512   0.08626   0.09750   0.10895
 Alpha virt. eigenvalues --    0.11818   0.13305   0.14791   0.15803   0.18354
 Alpha virt. eigenvalues --    0.23058   0.27012   0.34577   0.39101   0.45669

 Mulliken atomic charges:
              1
     1  C    0.164825
     2  C   -0.577294
     3  H    0.233622
     4  H   -0.165822
     5  H   -0.174054
     6  H   -0.174608
     7  Sn   0.586588
     8  Sn   0.344806
     9  F   -0.315283
    10  Br   0.077220
 Sum of Mulliken atomic charges =   0.00000

 Dipole moment (field-independent basis, Debye):
    X=              2.4357    Y=             -1.0655    Z=              0.0988  Tot=              2.6604
 Quadrupole moment (field-independent basis, Debye-Ang):
   XX=            -75.6741   YY=            -69.5359   ZZ=            -69.0429
   XY=              7.6966   XZ=             -4.1833   YZ=             -1.0378

  Exact polarizability: 220.106  35.154 100.385 -30.239  -0.811  64.076
 Approx polarizability: 167.807  35.983  97.061 -29.822  -1.166  60.324

                     1                      2                      3
                     A                      A                      A
 Frequencies --    11.4881                40.9552                76.9806
 Red. masses --    20.1737                16.2722                27.1598
 Frc consts  --     0.0016                 0.0161                 0.0948
 IR Inten    --     0.1026                 1.5058                 2.2146

                     4                      5                      6
                     A                      A                      A
 Frequencies --   134.7155               154.7711               207.1180
 Red. masses --     3.2825                 2.4161                 2.2212
 Frc consts  --     0.0351                 0.0341                 0.0561
 IR Inten    --     5.0121                 4.7269                59.8166

                     7                      8                      9
                     A                      A                      A
 Frequencies --   282.3852               309.1794               364.3791
 Red. masses --     3.0776                 1.5144                 6.8700
 Frc consts  --     0.1446                 0.0853                 0.5374
 IR Inten    --   142.3690                42.2356                 1.6378

                    10                     11                     12
                     A                      A                      A
 Frequencies --   393.9150               482.9469               503.4066
 Red. masses --     1.1766                 2.2736                 1.5301
 Frc consts  --     0.1076                 0.3124                 0.2285
 IR Inten    --    14.9777                23.7702                11.5455

                    13                     14                     15
                     A                      A                      A
 Frequencies --   522.4683               664.1123               781.1149
 Red. masses --     3.1828                 1.2707                 2.9882
 Frc consts  --     0.5119                 0.3302                 1.0742
 IR Inten    --     1.1841                87.4516                78.0198

                    16                     17                     18
                     A                      A                      A
 Frequencies --   826.6217               959.3257              1101.5465
 Red. masses --     1.0223                 1.2960                 8.3513
 Frc consts  --     0.4116                 0.7027                 5.9705
 IR Inten    --   243.1113                43.9658               169.6089

                    19                     20                     21
                     A                      A                      A
 Frequencies --  1338.9564              1791.9336              1908.8394
 Red. masses --     1.3285                10.4752                 1.0176
 Frc consts  --     1.4033                19.8178                 2.1846
 IR Inten    --    62.2365               519.6175               199.9365

                    22                     23                     24
                     A                      A                      A
 Frequencies --  1911.7035              1933.2950              3327.8605
 Red. masses --     1.0153                 1.0165                 1.0885
 Frc consts  --     2.1861                 2.2386                 7.1026
 IR Inten    --   401.6091               293.6597                15.7494

 - Thermochemistry -
 -------------------
 Temperature   298.150 Kelvin.  Pressure   1.00000 Atm.
 Atom     1 has atomic number  6 and mass  12.00000

 Molecular mass:   361.75164 amu.
 Principal axes and moments of inertia in atomic units:
                           1         2         3
     Eigenvalues --   776.375078333.012458924.92860
           X            0.99996  -0.00842   0.00214
           Y            0.00833   0.99919   0.03939
           Z           -0.00247  -0.03937   0.99922
 This molecule is an asymmetric top.
 Rotational symmetry number  1.
 Warning -- assumption of classical behavior for rotation
           may cause significant error
 Rotational temperatures (Kelvin)      0.11156     0.01039     0.00970
 Rotational constants (GHZ):           2.32457     0.21658     0.20221
 Zero-point vibrational energy     119806.1 (Joules/Mol)
                                   28.63435 (Kcal/Mol)
 Warning -- explicit consideration of  13 degrees of freedom as
           vibrations may cause significant error
 Vibrational temperatures:     16.53    58.93   110.76   193.83   222.68
          (Kelvin)            298.00   406.29   444.84   524.26   566.76
                              694.85   724.29   751.71   955.51  1123.85
                             1189.32  1380.25  1584.88  1926.46  2578.19
                             2746.39  2750.51  2781.58  4788.04

 Zero-point correction=                           0.045632 (Hartree/Particle)
 Thermal correction to Energy=                    0.055415
 Thermal correction to Enthalpy=                  0.056359
 Thermal correction to Gibbs Free Energy=         0.004881
 Sum of electronic and zero-point Energies=           -196.951819
 Sum of electronic and thermal Energies=              -196.942036
 Sum of electronic and thermal Enthalpies=            -196.941092
 Sum of electronic and thermal Free Energies=         -196.992570

                     E (Thermal)             CV                S
                      KCal/Mol        Cal/Mol-Kelvin    Cal/Mol-Kelvin
 Total                   34.773             30.759            108.345
 Electronic               0.000              0.000              0.000
 Translational            0.889              2.981             43.551
 Rotational               0.889              2.981             32.424
 Vibrational             32.996             24.797             32.370
 Vibration     1          0.593              1.987              7.735
 Vibration     2          0.594              1.981              5.212
 Vibration     3          0.599              1.965              3.966
 Vibration     4          0.613              1.919              2.878
 Vibration     5          0.620              1.897              2.613
 Vibration     6          0.641              1.830              2.069
 Vibration     7          0.681              1.706              1.519
 Vibration     8          0.699              1.656              1.367
 Vibration     9          0.738              1.546              1.103
 Vibration    10          0.761              1.483              0.985
 Vibration    11          0.839              1.288              0.702
 Vibration    12          0.859              1.242              0.650
 Vibration    13          0.877              1.200              0.604

 Normal termination of Gaussian 09 at Thu Oct 24 12:27:20 2024.
