 Gaussian 09, Revision A.01,
 Gaussian 09:  EM64L-G09RevA.01  8-May-2009

 ----------------------------------------
 # opt freq=noraman mp2/sdd geom=allcheck
 ----------------------------------------

 Title Card Required
 -------------------
 Redundant internal coordinates taken from checkpoint file:
 1-sddmp2.chk
 Charge =  0 Multiplicity = 1

 SCF Done:  E(RHF) =  -196.997450765     A.U. after   15 cycles
 E2 =    -0.4059947897D+00 EUMP2 =    -0.19740344555458D+03
 SCF Done:  E(RHF) =  -196.992648746     A.U. after   13 cycles
 E2 =    -0.4155048319D+00 EUMP2 =    -0.19740815357747D+03
 SCF Done:  E(RHF) =  -196.992248498     A.U. after   12 cycles
 E2 =    -0.4161253203D+00 EUMP2 =    -0.19740837381788D+03
 SCF Done:  E(RHF) =  -196.991982936     A.U. after   12 cycles
 E2 =    -0.4164571793D+00 EUMP2 =    -0.19740844011578D+03
 SCF Done:  E(RHF) =  -196.991932148     A.U. after   11 cycles
 E2 =    -0.4165045218D+00 EUMP2 =    -0.19740843666964D+03
 SCF Done:  E(RHF) =  -196.992033516     A.U. after   10 cycles
 E2 =    -0.4164213448D+00 EUMP2 =    -0.19740845486084D+03
 SCF Done:  E(RHF) =  -196.992079188     A.U. after   11 cycles
 E2 =    -0.4163784857D+00 EUMP2 =    -0.19740845767385D+03
 SCF Done:  E(RHF) =  -196.992081294     A.U. after   11 cycles
 E2 =    -0.4163771219D+00 EUMP2 =    -0.19740845841624D+03
 SCF Done:  E(RHF) =  -196.992071522     A.U. after   10 cycles
 E2 =    -0.4163870625D+00 EUMP2 =    -0.19740845858434D+03
 SCF Done:  E(RHF) =  -196.992067774     A.U. after    9 cycles
 E2 =    -0.4163908705D+00 EUMP2 =    -0.19740845864404D+03
 Optimization completed.
    -- Stationary point found.

 1\1\GINC-MALLOS73\FOpt\RMP2-FC\SDD\C2H4Br1F1Sn2\MARLIN\25-Oct-2024\0\\
 # opt freq=noraman mp2/sdd geom=allcheck\\Title Card Required\\0,1\C,1
 .1131948309,-2.3199552759,-0.1014285655\C,0.0566500068,-1.5137448468,0
 .1866889962\H,-0.8954159389,-2.0539165314,0.3090556822\H,1.4818007805,
 1.2285449851,-0.1547531344\H,-2.3877068924,3.4628777801,0.0862184628\H
 ,-3.7181827334,1.0670121472,0.3423246251\Sn,0.0033236337,0.6321349398,
 0.5348835907\Sn,-2.3086745438,1.7876825312,-0.382536869\F,0.9490735541
 ,-3.7388567923,-0.2431008502\Br,2.9822813026,-1.8483779371,-0.37935193

 Normal termination of Gaussian 09 at Fri Oct 25 10:43:30 2024.

 -----------------------------------------------------------------
 #N Geom=AllCheck Guess=TCheck SCRF=Check GenChk RMP2(FC)/SDD Freq
 -----------------------------------------------------------------

 Title Card Required
 -------------------
 Redundant internal coordinates taken from checkpoint file:
 1-sddmp2.chk
 Charge =  0 Multiplicity = 1

                         Standard orientation:
 ---------------------------------------------------------------------
 Center     Atomic      Atomic             Coordinates (Angstroms)
 Number     Number       Type             X           Y           Z
 ---------------------------------------------------------------------
      1          6           0       -2.381728    1.021309    0.136397
      2          6           0       -1.052682    1.060942    0.421601
      3          1           0       -0.688667    2.059658    0.710129
      4          1           0       -0.328709   -1.843104   -0.421114
      5          1           0        4.058595   -1.029542   -0.084829
      6          1           0        3.489995    1.570068    0.618484
      7         50           0        0.400919   -0.555091    0.487656
      8         50           0        2.893641    0.240442   -0.334385
      9          9           0       -3.191687    2.204598    0.200299
     10         35           0       -3.483645   -0.495987   -0.389625
 ---------------------------------------------------------------------

 SCF Done:  E(RHF) =  -196.992067774     A.U. after    1 cycles
 E2 =    -0.4163908683D+00 EUMP2 =    -0.19740845864192D+03
 E2 =    -0.4163908683D+00 EUMP2 =    -0.19740845864191D+03

 The electronic state is 1-A.
 Alpha  occ. eigenvalues --  -26.31253 -11.41560 -11.28092  -1.60655  -1.11429
 Alpha  occ. eigenvalues --   -1.02440  -0.79091  -0.70237  -0.68507  -0.68290
 Alpha  occ. eigenvalues --   -0.66866  -0.61232  -0.53589  -0.47926  -0.46303
 Alpha  occ. eigenvalues --   -0.44437  -0.44330  -0.40105  -0.38778  -0.28176
 Alpha virt. eigenvalues --   -0.03199   0.08271   0.08557   0.09218   0.10985
 Alpha virt. eigenvalues --    0.11679   0.12921   0.13790   0.15219   0.18132
 Alpha virt. eigenvalues --    0.22039   0.25140   0.34214   0.37943   0.45689

 Mulliken atomic charges:
              1
     1  C    0.165367
     2  C   -0.573101
     3  H    0.235163
     4  H   -0.161791
     5  H   -0.171505
     6  H   -0.172164
     7  Sn   0.579616
     8  Sn   0.349193
     9  F   -0.341893
    10  Br   0.091115
 Sum of Mulliken atomic charges =   0.00000

 Dipole moment (field-independent basis, Debye):
    X=              2.7226    Y=             -1.3475    Z=              0.1605  Tot=              3.0420
 Quadrupole moment (field-independent basis, Debye-Ang):
   XX=            -76.6724   YY=            -70.4348   ZZ=            -68.1259
   XY=              8.1491   XZ=             -3.8086   YZ=             -1.0197

  Exact polarizability: 198.939  23.259 101.300 -25.872   1.041  65.977
 Approx polarizability: 162.786  31.989  99.238 -35.765  -2.877  69.339

                     1                      2                      3
                     A                      A                      A
 Frequencies --    12.3775                40.5260                78.7944
 Red. masses --    20.9452                15.6960                25.4598
 Frc consts  --     0.0019                 0.0152                 0.0931
 IR Inten    --     0.0095                 0.6558                 0.0532

                     4                      5                      6
                     A                      A                      A
 Frequencies --   135.9873               175.7127               206.6807
 Red. masses --     1.9561                19.1137                 1.7604
 Frc consts  --     0.0213                 0.3477                 0.0443
 IR Inten    --     2.8462                 0.6155                12.2769

                     7                      8                      9
                     A                      A                      A
 Frequencies --   269.4641               330.7969               335.3462
 Red. masses --    18.1342                 1.2572                 3.8650
 Frc consts  --     0.7758                 0.0811                 0.2561
 IR Inten    --    35.3914                33.0430                 1.1162

                    10                     11                     12
                     A                      A                      A
 Frequencies --   385.2756               438.1425               449.9251
 Red. masses --     1.2103                 3.2415                 2.7465
 Frc consts  --     0.1058                 0.3666                 0.3276
 IR Inten    --    19.5331                 0.6196                11.1751

                    13                     14                     15
                     A                      A                      A
 Frequencies --   481.6649               613.2345               716.8259
 Red. masses --     1.3192                 1.2345                 3.2730
 Frc consts  --     0.1803                 0.2735                 0.9909
 IR Inten    --     5.0047                67.0561                68.4486

                    16                     17                     18
                     A                      A                      A
 Frequencies --   773.1657               809.6978               946.9107
 Red. masses --     1.0215                 1.2260                 8.3897
 Frc consts  --     0.3598                 0.4736                 4.4321
 IR Inten    --   219.2078                38.9177               153.0770

                    19                     20                     21
                     A                      A                      A
 Frequencies --  1230.5056              1561.5409              1838.1199
 Red. masses --     1.2830                10.8164                 1.0140
 Frc consts  --     1.1445                15.5396                 2.0185
 IR Inten    --    33.3398               424.9861               286.0429

                    22                     23                     24
                     A                      A                      A
 Frequencies --  1844.8364              1854.8564              3141.0230
 Red. masses --     1.0177                 1.0166                 1.0872
 Frc consts  --     2.0407                 2.0607                 6.3198
 IR Inten    --   109.3266               312.0581                15.2157

 - Thermochemistry -
 -------------------
 Temperature   298.150 Kelvin.  Pressure   1.00000 Atm.
 Atom     1 has atomic number  6 and mass  12.00000

 Molecular mass:   361.75164 amu.
 Principal axes and moments of inertia in atomic units:
                           1         2         3
     Eigenvalues --   889.977148300.830708783.82986
           X            0.99997  -0.00818   0.00127
           Y            0.00810   0.99847   0.05476
           Z           -0.00172  -0.05475   0.99850
 This molecule is an asymmetric top.
 Rotational symmetry number  1.
 Warning -- assumption of classical behavior for rotation
           may cause significant error
 Rotational temperatures (Kelvin)      0.09732     0.01043     0.00986
 Rotational constants (GHZ):           2.02785     0.21742     0.20546
 Zero-point vibrational energy     111679.8 (Joules/Mol)
                                   26.69212 (Kcal/Mol)
 Warning -- explicit consideration of  14 degrees of freedom as
           vibrations may cause significant error
 Vibrational temperatures:     17.81    58.31   113.37   195.66   252.81
          (Kelvin)            297.37   387.70   475.94   482.49   554.32
                              630.39   647.34   693.01   882.31  1031.35
                             1112.41  1164.97  1362.39  1770.42  2246.71
                             2644.64  2654.30  2668.72  4519.23

 Zero-point correction=                           0.042537 (Hartree/Particle)
 Thermal correction to Energy=                    0.052543
 Thermal correction to Enthalpy=                  0.053487
 Thermal correction to Gibbs Free Energy=         0.001749
 Sum of electronic and zero-point Energies=           -197.365922
 Sum of electronic and thermal Energies=              -197.355915
 Sum of electronic and thermal Enthalpies=            -197.354971
 Sum of electronic and thermal Free Energies=         -197.406710

                     E (Thermal)             CV                S
                      KCal/Mol        Cal/Mol-Kelvin    Cal/Mol-Kelvin
 Total                   32.971             31.883            108.893
 Electronic               0.000              0.000              0.000
 Translational            0.889              2.981             43.551
 Rotational               0.889              2.981             32.540
 Vibrational             31.194             25.921             32.803
 Vibration     1          0.593              1.987              7.587
 Vibration     2          0.594              1.981              5.233
 Vibration     3          0.600              1.963              3.921
 Vibration     4          0.614              1.917              2.860
 Vibration     5          0.628              1.872              2.373
 Vibration     6          0.641              1.830              2.073
 Vibration     7          0.674              1.729              1.600
 Vibration     8          0.713              1.614              1.256
 Vibration     9          0.716              1.605              1.234
 Vibration    10          0.754              1.502              1.018
 Vibration    11          0.798              1.387              0.832
 Vibration    12          0.809              1.361              0.796
 Vibration    13          0.838              1.291              0.706
 Vibration    14          0.973              1.004              0.427

 1\1\GINC-MALLOS73\Freq\RMP2-FC\SDD\C2H4Br1F1Sn2\MARLIN\25-Oct-2024\0\\
 #N Geom=AllCheck Guess=TCheck SCRF=Check GenChk RMP2(FC)/SDD Freq\\Tit
 le Card Required\\0,1\C,1.1131948309,-2.3199552759,-0.1014285655\C,0.0
 566500068,-1.5137448468,0.1866889962\H,-0.8954159389,-2.0539165314,0.3
 090556822\H,1.4818007805,1.2285449851,-0.1547531344\H,-2.3877068924,3.
 4628777801,0.0862184628\H,-3.7181827334,1.0670121472,0.3423246251\Sn,0
 .0033236337,0.6321349398,0.5348835907\Sn,-2.3086745438,1.7876825312,-0
 .382536869\F,0.9490735541,-3.7388567923,-0.2431008502\Br,2.9822813026,

 Normal termination of Gaussian 09 at Fri Oct 25 10:43:48 2024.
