 Gaussian 09, Revision A.01,
 Gaussian 09:  EM64L-G09RevA.01  8-May-2009

 -----------------------------------------------
 # opt freq=noraman hf/lanl2dz geom=connectivity
 -----------------------------------------------

 -------------------
 Title Card Required
 -------------------
 Symbolic Z-matrix:
 Charge =  0 Multiplicity = 1

 SCF Done:  E(RHF) =  -196.757374730     A.U. after   15 cycles
 SCF Done:  E(RHF) =  -196.764548132     A.U. after   13 cycles
 SCF Done:  E(RHF) =  -196.767636411     A.U. after   16 cycles
 SCF Done:  E(RHF) =  -196.774919805     A.U. after   13 cycles
 SCF Done:  E(RHF) =  -196.782112042     A.U. after   15 cycles
 SCF Done:  E(RHF) =  -196.784575172     A.U. after   13 cycles
 SCF Done:  E(RHF) =  -196.784967014     A.U. after   12 cycles
 SCF Done:  E(RHF) =  -196.785050834     A.U. after   13 cycles
 SCF Done:  E(RHF) =  -196.785151187     A.U. after   12 cycles
 SCF Done:  E(RHF) =  -196.785187740     A.U. after   11 cycles
 SCF Done:  E(RHF) =  -196.785216919     A.U. after   12 cycles
 SCF Done:  E(RHF) =  -196.785228357     A.U. after   11 cycles
 SCF Done:  E(RHF) =  -196.785235438     A.U. after   11 cycles
 SCF Done:  E(RHF) =  -196.785236966     A.U. after   11 cycles
 SCF Done:  E(RHF) =  -196.785237610     A.U. after   10 cycles
 SCF Done:  E(RHF) =  -196.785237950     A.U. after   10 cycles
 SCF Done:  E(RHF) =  -196.785238014     A.U. after    9 cycles
 Optimization completed.
    -- Stationary point found.

 1\1\GINC-MALLOS66\FOpt\RHF\LANL2DZ\C2H4Br1F1Sn2\MARLIN\24-Oct-2024\0\\
 # opt freq=noraman hf/lanl2dz geom=connectivity\\Title Card Required\\
 0,1\C,2.2960559574,2.9416563574,-0.0531233548\C,1.7102507578,1.7606741
 361,0.0791162695\H,-1.2174814273,2.1378141258,-0.5471459824\H,-1.93252
 45755,-2.3506530452,-0.1866102399\H,0.6722379948,-2.6876798023,0.29226
 68621\Sn,-0.3216860322,1.0947206442,0.4854344252\Sn,-0.4176777856,-1.5
 610455959,-0.4104493317\Br,1.3005717518,4.6033463873,0.0236730053\H,3.
 3469300739,3.0771335754,-0.202023698\F,2.6045844048,0.6661904572,0.025

 Normal termination of Gaussian 09 at Thu Oct 24 12:07:30 2024.

 ----------------------------------------------------------------
 #N Geom=AllCheck Guess=TCheck SCRF=Check GenChk RHF/LANL2DZ Freq
 ----------------------------------------------------------------

 Title Card Required
 -------------------
 Redundant internal coordinates taken from checkpoint file:
 2-lanl2dz.chk
 Charge =  0 Multiplicity = 1

                         Standard orientation:
 ---------------------------------------------------------------------
 Center     Atomic      Atomic             Coordinates (Angstroms)
 Number     Number       Type             X           Y           Z
 ---------------------------------------------------------------------
      1          6           0       -2.373871    1.271180    0.023757
      2          6           0       -1.078383    1.051598    0.193661
      3          1           0       -0.476011   -1.678469   -0.942094
      4          1           0        3.979653   -1.072952   -0.188428
      5          1           0        3.449750    1.371367    0.745491
      6         50           0        0.168933   -0.726382    0.336301
      7         50           0        2.767453    0.149746   -0.251074
      8         35           0       -3.638599   -0.171284   -0.255281
      9          1           0       -2.824650    2.241517    0.034068
     10          9           0       -0.320390    2.225402    0.413327
 ---------------------------------------------------------------------

 SCF Done:  E(RHF) =  -196.785238014     A.U. after    1 cycles

 The electronic state is 1-A.
 Alpha  occ. eigenvalues --  -26.29163 -11.33898 -11.30567  -1.59830  -1.10419
 Alpha  occ. eigenvalues --   -0.97865  -0.79404  -0.69879  -0.69357  -0.67133
 Alpha  occ. eigenvalues --   -0.65963  -0.60363  -0.52464  -0.47731  -0.46354
 Alpha  occ. eigenvalues --   -0.45061  -0.42299  -0.40206  -0.37271  -0.28685
 Alpha virt. eigenvalues --   -0.03748   0.07867   0.08702   0.13180   0.14468
 Alpha virt. eigenvalues --    0.15805   0.17577   0.21420   0.26770   0.30394
 Alpha virt. eigenvalues --    0.32097   0.32582   0.34116   0.35267   0.36498

 Mulliken atomic charges:
              1
     1  C   -0.480068
     2  C    0.096418
     3  H   -0.176516
     4  H   -0.190666
     5  H   -0.171682
     6  Sn   0.554236
     7  Sn   0.458247
     8  Br   0.001532
     9  H    0.288081
    10  F   -0.379580
 Sum of Mulliken atomic charges =   0.00000

 Dipole moment (field-independent basis, Debye):
    X=              1.7409    Y=             -0.8481    Z=             -0.4796  Tot=              1.9949
 Quadrupole moment (field-independent basis, Debye-Ang):
   XX=            -66.4211   YY=            -70.0971   ZZ=            -69.1872
   XY=             -1.0468   XZ=             -5.2926   YZ=             -2.6516

  Exact polarizability: 215.969  33.333 100.074 -30.127  -1.958  64.865
 Approx polarizability: 161.454  36.387  94.993 -28.143  -2.192  60.319

                     1                      2                      3
                     A                      A                      A
 Frequencies --    15.5524                35.4098                68.6372
 Red. masses --    24.6091                15.3344                26.8732
 Frc consts  --     0.0035                 0.0113                 0.0746
 IR Inten    --     0.1306                 3.0918                 1.2725

                     4                      5                      6
                     A                      A                      A
 Frequencies --   123.7216               192.0887               236.6869
 Red. masses --     8.4536                 1.1842                 6.5205
 Frc consts  --     0.0762                 0.0257                 0.2152
 IR Inten    --    14.3420                27.9445                57.0963

                     7                      8                      9
                     A                      A                      A
 Frequencies --   243.6799               285.4487               340.0147
 Red. masses --     5.3299                 1.1830                 1.5211
 Frc consts  --     0.1865                 0.0568                 0.1036
 IR Inten    --     4.5673               104.1446                 8.5005

                    10                     11                     12
                     A                      A                      A
 Frequencies --   371.6539               393.1386               441.1373
 Red. masses --     2.6863                 3.1888                 6.5200
 Frc consts  --     0.2186                 0.2904                 0.7476
 IR Inten    --     9.2411                 5.4377                12.8624

                    13                     14                     15
                     A                      A                      A
 Frequencies --   521.7378               661.7378               819.8383
 Red. masses --     1.0973                 1.1068                 5.1409
 Frc consts  --     0.1760                 0.2855                 2.0359
 IR Inten    --     2.1033               154.2903               103.7454

                    16                     17                     18
                     A                      A                      A
 Frequencies --   839.2120               951.2906              1064.7757
 Red. masses --     1.0329                 1.3777                 7.4803
 Frc consts  --     0.4286                 0.7345                 4.9967
 IR Inten    --   250.5398                71.7323                94.6816

                    19                     20                     21
                     A                      A                      A
 Frequencies --  1350.8077              1784.4235              1920.8345
 Red. masses --     1.2269                 9.4366                 1.0162
 Frc consts  --     1.3190                17.7036                 2.2092
 IR Inten    --    28.0665                 3.0303               287.0942

                    22                     23                     24
                     A                      A                      A
 Frequencies --  1926.7932              1936.6631              3442.1878
 Red. masses --     1.0164                 1.0163                 1.0955
 Frc consts  --     2.2232                 2.2458                 7.6477
 IR Inten    --    87.7629               371.9160                14.3533

 - Thermochemistry -
 -------------------
 Temperature   298.150 Kelvin.  Pressure   1.00000 Atm.
 Atom     1 has atomic number  6 and mass  12.00000

 Molecular mass:   361.75164 amu.
 Principal axes and moments of inertia in atomic units:
                           1         2         3
     Eigenvalues --   841.096697503.663988124.48393
           X            0.99996  -0.00844   0.00237
           Y            0.00835   0.99925   0.03773
           Z           -0.00269  -0.03771   0.99928
 This molecule is an asymmetric top.
 Rotational symmetry number  1.
 Warning -- assumption of classical behavior for rotation
           may cause significant error
 Rotational temperatures (Kelvin)      0.10298     0.01154     0.01066
 Rotational constants (GHZ):           2.14570     0.24051     0.22214
 Zero-point vibrational energy     119432.0 (Joules/Mol)
                                   28.54493 (Kcal/Mol)
 Warning -- explicit consideration of  13 degrees of freedom as
           vibrations may cause significant error
 Vibrational temperatures:     22.38    50.95    98.75   178.01   276.37
          (Kelvin)            340.54   350.60   410.70   489.20   534.73
                              565.64   634.70   750.66   952.09  1179.56
                             1207.44  1368.69  1531.97  1943.51  2567.38
                             2763.65  2772.22  2786.42  4952.53

 Zero-point correction=                           0.045489 (Hartree/Particle)
 Thermal correction to Energy=                    0.055458
 Thermal correction to Enthalpy=                  0.056403
 Thermal correction to Gibbs Free Energy=         0.004766
 Sum of electronic and zero-point Energies=           -196.739749
 Sum of electronic and thermal Energies=              -196.729780
 Sum of electronic and thermal Enthalpies=            -196.728835
 Sum of electronic and thermal Free Energies=         -196.780472

                     E (Thermal)             CV                S
                      KCal/Mol        Cal/Mol-Kelvin    Cal/Mol-Kelvin
 Total                   34.801             31.186            108.680
 Electronic               0.000              0.000              0.000
 Translational            0.889              2.981             43.551
 Rotational               0.889              2.981             32.306
 Vibrational             33.023             25.225             32.823
 Vibration     1          0.593              1.986              7.134
 Vibration     2          0.594              1.982              5.501
 Vibration     3          0.598              1.969              4.192
 Vibration     4          0.610              1.929              3.041
 Vibration     5          0.634              1.851              2.208
 Vibration     6          0.656              1.785              1.828
 Vibration     7          0.659              1.773              1.776
 Vibration     8          0.683              1.701              1.501
 Vibration     9          0.720              1.596              1.212
 Vibration    10          0.743              1.530              1.073
 Vibration    11          0.760              1.485              0.988
 Vibration    12          0.801              1.380              0.823
 Vibration    13          0.877              1.202              0.606

 Optimization completed.
    -- Stationary point found.

 1\1\GINC-MALLOS66\Freq\RHF\LANL2DZ\C2H4Br1F1Sn2\MARLIN\24-Oct-2024\0\\
 #N Geom=AllCheck Guess=TCheck SCRF=Check GenChk RHF/LANL2DZ Freq\\Titl
 e Card Required\\0,1\C,2.2960559574,2.9416563574,-0.0531233548\C,1.710
 2507578,1.7606741361,0.0791162695\H,-1.2174814273,2.1378141258,-0.5471
 459824\H,-1.9325245755,-2.3506530452,-0.1866102399\H,0.6722379948,-2.6
 876798023,0.2922668621\Sn,-0.3216860322,1.0947206442,0.4854344252\Sn,-
 0.4176777856,-1.5610455959,-0.4104493317\Br,1.3005717518,4.6033463873,
 0.0236730053\H,3.3469300739,3.0771335754,-0.202023698\F,2.6045844048,0

 Normal termination of Gaussian 09 at Thu Oct 24 12:07:33 2024.
