 Gaussian 09, Revision A.01,
 Gaussian 09:  EM64L-G09RevA.01  8-May-2009

 --------------------------------------------
 # opt freq=noraman mp2/lanl2dz geom=allcheck
 --------------------------------------------

 Title Card Required
 -------------------
 Redundant internal coordinates taken from checkpoint file:
 2-mp2.chk
 Charge =  0 Multiplicity = 1

 SCF Done:  E(RHF) =  -196.785238014     A.U. after   15 cycles
 E2 =    -0.4044029065D+00 EUMP2 =    -0.19718964092035D+03
 SCF Done:  E(RHF) =  -196.780583655     A.U. after   13 cycles
 E2 =    -0.4137341823D+00 EUMP2 =    -0.19719431783696D+03
 SCF Done:  E(RHF) =  -196.780092253     A.U. after   13 cycles
 E2 =    -0.4145801486D+00 EUMP2 =    -0.19719467240186D+03
 SCF Done:  E(RHF) =  -196.779402603     A.U. after   13 cycles
 E2 =    -0.4153383649D+00 EUMP2 =    -0.19719474096817D+03
 SCF Done:  E(RHF) =  -196.779042432     A.U. after   12 cycles
 E2 =    -0.4157474983D+00 EUMP2 =    -0.19719478993077D+03
 SCF Done:  E(RHF) =  -196.779782445     A.U. after   11 cycles
 E2 =    -0.4150997234D+00 EUMP2 =    -0.19719488216838D+03
 SCF Done:  E(RHF) =  -196.780032239     A.U. after   11 cycles
 E2 =    -0.4148795153D+00 EUMP2 =    -0.19719491175459D+03
 SCF Done:  E(RHF) =  -196.779965270     A.U. after   11 cycles
 E2 =    -0.4149495496D+00 EUMP2 =    -0.19719491481949D+03
 SCF Done:  E(RHF) =  -196.779939705     A.U. after   10 cycles
 E2 =    -0.4149754769D+00 EUMP2 =    -0.19719491518156D+03
 SCF Done:  E(RHF) =  -196.779929638     A.U. after    8 cycles
 E2 =    -0.4149857093D+00 EUMP2 =    -0.19719491534764D+03
 SCF Done:  E(RHF) =  -196.779931339     A.U. after    9 cycles
 E2 =    -0.4149841343D+00 EUMP2 =    -0.19719491547310D+03
 Optimization completed.
    -- Stationary point found.
 Normal termination of Gaussian 09 at Thu Oct 24 12:19:32 2024.

 ---------------------------------------------------------------------
 #N Geom=AllCheck Guess=TCheck SCRF=Check GenChk RMP2(FC)/LANL2DZ Freq
 ---------------------------------------------------------------------

 Title Card Required
 -------------------
 Redundant internal coordinates taken from checkpoint file:
 2-mp2.chk
 Charge =  0 Multiplicity = 1

                         Standard orientation:
 ---------------------------------------------------------------------
 Center     Atomic      Atomic             Coordinates (Angstroms)
 Number     Number       Type             X           Y           Z
 ---------------------------------------------------------------------
      1          6           0       -2.434338    1.251653   -0.006063
      2          6           0       -1.093065    1.063730    0.168295
      3          1           0       -0.492917   -1.817859   -0.726573
      4          1           0        3.901351   -1.189451   -0.036070
      5          1           0        3.372767    1.386339    0.749340
      6         50           0        0.219963   -0.657219    0.341511
      7         50           0        2.774240    0.111414   -0.255516
      8         35           0       -3.693369   -0.231598   -0.239798
      9          1           0       -2.892470    2.244165   -0.024316
     10          9           0       -0.351838    2.320076    0.350823
 ---------------------------------------------------------------------

 SCF Done:  E(RHF) =  -196.779931339     A.U. after    1 cycles
 E2 =    -0.4149841369D+00 EUMP2 =    -0.19719491547572D+03
 E2 =    -0.4149841369D+00 EUMP2 =    -0.19719491547572D+03

 The electronic state is 1-A.
 Alpha  occ. eigenvalues --  -26.28726 -11.35140 -11.32294  -1.57535  -1.09685
 Alpha  occ. eigenvalues --   -0.97827  -0.78976  -0.69088  -0.67959  -0.65694
 Alpha  occ. eigenvalues --   -0.65391  -0.60190  -0.52659  -0.47838  -0.47160
 Alpha  occ. eigenvalues --   -0.45004  -0.42751  -0.40606  -0.37651  -0.28467
 Alpha virt. eigenvalues --   -0.03573   0.08145   0.08832   0.12236   0.12842
 Alpha virt. eigenvalues --    0.14854   0.17080   0.21098   0.25732   0.29690
 Alpha virt. eigenvalues --    0.31600   0.32223   0.34158   0.35147   0.36346

 Mulliken atomic charges:
              1
     1  C   -0.456801
     2  C    0.085854
     3  H   -0.170785
     4  H   -0.186360
     5  H   -0.165176
     6  Sn   0.582709
     7  Sn   0.415768
     8  Br   0.011833
     9  H    0.285182
    10  F   -0.402225
 Sum of Mulliken atomic charges =   0.00000

 Dipole moment (field-independent basis, Debye):
    X=              1.0766    Y=             -1.2421    Z=             -0.4456  Tot=              1.7031
 Quadrupole moment (field-independent basis, Debye-Ang):
   XX=            -65.9145   YY=            -71.4149   ZZ=            -69.4220
   XY=             -1.5391   XZ=             -4.9168   YZ=             -2.5569

  Exact polarizability: 201.925  25.021  99.553 -22.475   0.570  58.034
 Approx polarizability: 169.499  35.181  96.842 -32.238  -2.780  59.146

                     1                      2                      3
                     A                      A                      A
 Frequencies --    16.3778                38.9577                67.8712
 Red. masses --    24.3370                15.8507                36.1356
 Frc consts  --     0.0038                 0.0142                 0.0981
 IR Inten    --     0.0658                 0.1307                 0.1105

                     4                      5                      6
                     A                      A                      A
 Frequencies --   173.5540               190.2226               217.4820
 Red. masses --     4.4740                 1.4370                 4.7880
 Frc consts  --     0.0794                 0.0306                 0.1334
 IR Inten    --     2.1302                 5.6596                 3.2269

                     7                      8                      9
                     A                      A                      A
 Frequencies --   226.1620               313.7237               329.2001
 Red. masses --    12.7482                 1.4084                 5.4860
 Frc consts  --     0.3842                 0.0817                 0.3503
 IR Inten    --    24.6440                26.4404                 2.7724

                    10                     11                     12
                     A                      A                      A
 Frequencies --   355.6409               392.1617               418.9969
 Red. masses --     2.0861                 1.2578                 4.4403
 Frc consts  --     0.1555                 0.1140                 0.4593
 IR Inten    --     6.2133                 4.3409                 9.1200

                    13                     14                     15
                     A                      A                      A
 Frequencies --   478.6592               611.3420               754.3430
 Red. masses --     1.0884                 1.0816                 5.4068
 Frc consts  --     0.1469                 0.2382                 1.8127
 IR Inten    --     0.3516               124.9977                61.0337

                    16                     17                     18
                     A                      A                      A
 Frequencies --   776.5339               823.0394               943.9274
 Red. masses --     1.0290                 1.3286                 7.9919
 Frc consts  --     0.3656                 0.5302                 4.1954
 IR Inten    --   204.7025                63.6116                48.2182

                    19                     20                     21
                     A                      A                      A
 Frequencies --  1253.6021              1558.3731              1852.1974
 Red. masses --     1.2084                 9.5445                 1.0147
 Frc consts  --     1.1188                13.6568                 2.0510
 IR Inten    --    22.2932                 7.7005               226.7383

                    22                     23                     24
                     A                      A                      A
 Frequencies --  1860.7871              1869.9785              3227.7106
 Red. masses --     1.0165                 1.0171                 1.0928
 Frc consts  --     2.0738                 2.0955                 6.7076
 IR Inten    --    32.2641               265.7378                 5.8601

 - Thermochemistry -
 -------------------
 Temperature   298.150 Kelvin.  Pressure   1.00000 Atm.
 Atom     1 has atomic number  6 and mass  12.00000

 Molecular mass:   361.75164 amu.
 Principal axes and moments of inertia in atomic units:
                           1         2         3
     Eigenvalues --   829.789237648.869348267.46395
           X            0.99996  -0.00834   0.00281
           Y            0.00825   0.99946   0.03181
           Z           -0.00307  -0.03178   0.99949
 This molecule is an asymmetric top.
 Rotational symmetry number  1.
 Warning -- assumption of classical behavior for rotation
           may cause significant error
 Rotational temperatures (Kelvin)      0.10438     0.01132     0.01048
 Rotational constants (GHZ):           2.17494     0.23595     0.21829
 Zero-point vibrational energy     112155.0 (Joules/Mol)
                                   26.80568 (Kcal/Mol)
 Warning -- explicit consideration of  14 degrees of freedom as
           vibrations may cause significant error
 Vibrational temperatures:     23.56    56.05    97.65   249.71   273.69
          (Kelvin)            312.91   325.40   451.38   473.64   511.69
                              564.23   602.84   688.68   879.58  1085.33
                             1117.26  1184.17  1358.10  1803.65  2242.15
                             2664.90  2677.25  2690.48  4643.95

 Zero-point correction=                           0.042718 (Hartree/Particle)
 Thermal correction to Energy=                    0.052810
 Thermal correction to Enthalpy=                  0.053754
 Thermal correction to Gibbs Free Energy=         0.002175
 Sum of electronic and zero-point Energies=           -197.152198
 Sum of electronic and thermal Energies=              -197.142105
 Sum of electronic and thermal Enthalpies=            -197.141161
 Sum of electronic and thermal Free Energies=         -197.192741

                     E (Thermal)             CV                S
                      KCal/Mol        Cal/Mol-Kelvin    Cal/Mol-Kelvin
 Total                   33.139             32.061            108.558
 Electronic               0.000              0.000              0.000
 Translational            0.889              2.981             43.551
 Rotational               0.889              2.981             32.329
 Vibrational             31.361             26.100             32.679
 Vibration     1          0.593              1.986              7.031
 Vibration     2          0.594              1.981              5.311
 Vibration     3          0.598              1.970              4.214
 Vibration     4          0.627              1.875              2.397
 Vibration     5          0.634              1.853              2.226
 Vibration     6          0.646              1.814              1.980
 Vibration     7          0.650              1.801              1.909
 Vibration     8          0.702              1.647              1.343
 Vibration     9          0.712              1.617              1.264
 Vibration    10          0.731              1.564              1.141
 Vibration    11          0.760              1.487              0.992
 Vibration    12          0.782              1.429              0.895
 Vibration    13          0.835              1.297              0.714
 Vibration    14          0.970              1.008              0.431

 Normal termination of Gaussian 09 at Thu Oct 24 12:19:47 2024.
