 Gaussian 09, Revision A.01,
 Gaussian 09:  EM64L-G09RevA.01  8-May-2009

 ---------------------------------------
 # opt freq=noraman hf/sdd geom=allcheck
 ---------------------------------------

 Title Card Required
 -------------------
 Redundant internal coordinates taken from checkpoint file:
 2-sdd.chk
 Charge =  0 Multiplicity = 1

 SCF Done:  E(RHF) =  -197.000532449     A.U. after   15 cycles
 SCF Done:  E(RHF) =  -197.000683707     A.U. after   12 cycles
 SCF Done:  E(RHF) =  -197.000698151     A.U. after   11 cycles
 SCF Done:  E(RHF) =  -197.000697267     A.U. after   10 cycles
 SCF Done:  E(RHF) =  -197.000699531     A.U. after   10 cycles
 SCF Done:  E(RHF) =  -197.000699769     A.U. after    9 cycles
 SCF Done:  E(RHF) =  -197.000699851     A.U. after    9 cycles
 SCF Done:  E(RHF) =  -197.000699875     A.U. after    8 cycles
 Optimization completed.
    -- Stationary point found.
 Normal termination of Gaussian 09 at Thu Oct 24 10:29:17 2024.

 ------------------------------------------------------------
 #N Geom=AllCheck Guess=TCheck SCRF=Check GenChk RHF/SDD Freq
 ------------------------------------------------------------

 Title Card Required
 -------------------
 Redundant internal coordinates taken from checkpoint file:
 2-sdd.chk
 Charge =  0 Multiplicity = 1

                         Standard orientation:
 ---------------------------------------------------------------------
 Center     Atomic      Atomic             Coordinates (Angstroms)
 Number     Number       Type             X           Y           Z
 ---------------------------------------------------------------------
      1          6           0       -2.387152    1.265337    0.032544
      2          6           0       -1.091843    1.051373    0.211497
      3          1           0       -0.479246   -1.704035   -0.910661
      4          1           0        3.991021   -1.055430   -0.202792
      5          1           0        3.441126    1.402407    0.712962
      6         50           0        0.180854   -0.735158    0.351623
      7         50           0        2.763674    0.157694   -0.263961
      8         35           0       -3.638932   -0.170352   -0.271515
      9          1           0       -2.842569    2.233689    0.046844
     10          9           0       -0.344459    2.228734    0.445482
 ---------------------------------------------------------------------

 SCF Done:  E(RHF) =  -197.000699875     A.U. after    1 cycles

 The electronic state is 1-A.
 Alpha  occ. eigenvalues --  -26.29170 -11.34226 -11.30797  -1.59744  -1.11707
 Alpha  occ. eigenvalues --   -1.00237  -0.79444  -0.70210  -0.69253  -0.67054
 Alpha  occ. eigenvalues --   -0.66470  -0.60739  -0.52748  -0.47711  -0.46188
 Alpha  occ. eigenvalues --   -0.44877  -0.42351  -0.40093  -0.37211  -0.28526
 Alpha virt. eigenvalues --   -0.03521   0.08185   0.08402   0.09864   0.10858
 Alpha virt. eigenvalues --    0.11046   0.13735   0.15974   0.16952   0.18212
 Alpha virt. eigenvalues --    0.22777   0.29601   0.32314   0.40846   0.43750

 Mulliken atomic charges:
              1
     1  C   -0.491425
     2  C    0.095792
     3  H   -0.166764
     4  H   -0.180919
     5  H   -0.161164
     6  Sn   0.528764
     7  Sn   0.442986
     8  Br   0.037731
     9  H    0.277625
    10  F   -0.382627
 Sum of Mulliken atomic charges =   0.00000

 Dipole moment (field-independent basis, Debye):
    X=              1.9287    Y=             -0.9617    Z=             -0.5104  Tot=              2.2148
 Quadrupole moment (field-independent basis, Debye-Ang):
   XX=            -65.9141   YY=            -69.7049   ZZ=            -68.9227
   XY=             -0.8211   XZ=             -5.0941   YZ=             -2.5434

  Exact polarizability: 213.488  32.983  99.657 -29.845  -2.330  65.902
 Approx polarizability: 161.533  36.884  95.754 -29.016  -3.012  61.939

                     1                      2                      3
                     A                      A                      A
 Frequencies --    16.1455                36.7909                71.0810
 Red. masses --    24.7530                15.2576                30.6116
 Frc consts  --     0.0038                 0.0122                 0.0911
 IR Inten    --     0.1459                 2.6069                 0.7737

                     4                      5                      6
                     A                      A                      A
 Frequencies --   124.0308               193.6141               237.6738
 Red. masses --     9.0778                 1.1651                 7.5931
 Frc consts  --     0.0823                 0.0257                 0.2527
 IR Inten    --    12.6166                25.4160                55.2671

                     7                      8                      9
                     A                      A                      A
 Frequencies --   243.5752               291.6332               343.3675
 Red. masses --     5.1953                 1.1680                 1.5634
 Frc consts  --     0.1816                 0.0585                 0.1086
 IR Inten    --     3.7939               111.9175                 7.4455

                    10                     11                     12
                     A                      A                      A
 Frequencies --   374.5488               391.3271               440.2005
 Red. masses --     2.5327                 3.2237                 6.6774
 Frc consts  --     0.2093                 0.2909                 0.7624
 IR Inten    --     9.5678                 6.7806                13.7160

                    13                     14                     15
                     A                      A                      A
 Frequencies --   522.4846               657.9468               827.4620
 Red. masses --     1.0934                 1.1017                 4.0082
 Frc consts  --     0.1759                 0.2810                 1.6170
 IR Inten    --     2.0292               150.6891               165.2278

                    16                     17                     18
                     A                      A                      A
 Frequencies --   836.1038               949.0582              1063.5217
 Red. masses --     1.0902                 1.3759                 7.6647
 Frc consts  --     0.4490                 0.7302                 5.1078
 IR Inten    --   188.7491                72.8691                97.9663

                    19                     20                     21
                     A                      A                      A
 Frequencies --  1351.2229              1783.6287              1917.6685
 Red. masses --     1.2285                 9.4002                 1.0165
 Frc consts  --     1.3216                17.6197                 2.2023
 IR Inten    --    32.6181                 3.9473               317.0497

                    22                     23                     24
                     A                      A                      A
 Frequencies --  1925.2928              1935.0607              3441.8769
 Red. masses --     1.0165                 1.0160                 1.0956
 Frc consts  --     2.2200                 2.2415                 7.6467
 IR Inten    --   149.3344               447.3781                15.5492

 - Thermochemistry -
 -------------------
 Temperature   298.150 Kelvin.  Pressure   1.00000 Atm.
 Atom     1 has atomic number  6 and mass  12.00000

 Molecular mass:   361.75164 amu.
 Principal axes and moments of inertia in atomic units:
                           1         2         3
     Eigenvalues --   859.640917514.217398130.72782
           X            0.99996  -0.00843   0.00225
           Y            0.00834   0.99919   0.03929
           Z           -0.00258  -0.03927   0.99923
 This molecule is an asymmetric top.
 Rotational symmetry number  1.
 Warning -- assumption of classical behavior for rotation
           may cause significant error
 Rotational temperatures (Kelvin)      0.10076     0.01153     0.01065
 Rotational constants (GHZ):           2.09941     0.24018     0.22197
 Zero-point vibrational energy     119478.9 (Joules/Mol)
                                   28.55615 (Kcal/Mol)
 Warning -- explicit consideration of  13 degrees of freedom as
           vibrations may cause significant error
 Vibrational temperatures:     23.23    52.93   102.27   178.45   278.57
          (Kelvin)            341.96   350.45   419.59   494.03   538.89
                              563.03   633.35   751.74   946.64  1190.53
                             1202.97  1365.48  1530.17  1944.11  2566.24
                             2759.09  2770.06  2784.12  4952.09

 Zero-point correction=                           0.045507 (Hartree/Particle)
 Thermal correction to Energy=                    0.055451
 Thermal correction to Enthalpy=                  0.056395
 Thermal correction to Gibbs Free Energy=         0.004888
 Sum of electronic and zero-point Energies=           -196.955193
 Sum of electronic and thermal Energies=              -196.945249
 Sum of electronic and thermal Enthalpies=            -196.944304
 Sum of electronic and thermal Free Energies=         -196.995811

                     E (Thermal)             CV                S
                      KCal/Mol        Cal/Mol-Kelvin    Cal/Mol-Kelvin
 Total                   34.796             31.165            108.406
 Electronic               0.000              0.000              0.000
 Translational            0.889              2.981             43.551
 Rotational               0.889              2.981             32.329
 Vibrational             33.019             25.204             32.525
 Vibration     1          0.593              1.986              7.059
 Vibration     2          0.594              1.982              5.425
 Vibration     3          0.598              1.968              4.123
 Vibration     4          0.610              1.929              3.037
 Vibration     5          0.635              1.849              2.193
 Vibration     6          0.656              1.783              1.820
 Vibration     7          0.659              1.773              1.777
 Vibration     8          0.687              1.689              1.464
 Vibration     9          0.722              1.589              1.196
 Vibration    10          0.746              1.524              1.061
 Vibration    11          0.759              1.489              0.995
 Vibration    12          0.800              1.383              0.826
 Vibration    13          0.877              1.200              0.604

 Optimization completed.
    -- Stationary point found.
 Normal termination of Gaussian 09 at Thu Oct 24 10:29:20 2024.
