 Gaussian 09, Revision A.01,
 Gaussian 09:  EM64L-G09RevA.01  8-May-2009

 ----------------------------------------
 # opt freq=noraman mp2/sdd geom=allcheck
 ----------------------------------------

 Title Card Required
 -------------------
 Redundant internal coordinates taken from checkpoint file:
 2-sddmp2.chk
 Charge =  0 Multiplicity = 1

 SCF Done:  E(RHF) =  -197.000699875     A.U. after   15 cycles
 E2 =    -0.4028850444D+00 EUMP2 =    -0.19740358491956D+03
 SCF Done:  E(RHF) =  -196.996004114     A.U. after   13 cycles
 E2 =    -0.4122053629D+00 EUMP2 =    -0.19740820947665D+03
 SCF Done:  E(RHF) =  -196.995596929     A.U. after   12 cycles
 E2 =    -0.4129254132D+00 EUMP2 =    -0.19740852234270D+03
 SCF Done:  E(RHF) =  -196.994981604     A.U. after   13 cycles
 E2 =    -0.4135926343D+00 EUMP2 =    -0.19740857423862D+03
 SCF Done:  E(RHF) =  -196.994630754     A.U. after   12 cycles
 E2 =    -0.4139839932D+00 EUMP2 =    -0.19740861474700D+03
 SCF Done:  E(RHF) =  -196.995307258     A.U. after   11 cycles
 E2 =    -0.4133859346D+00 EUMP2 =    -0.19740869319306D+03
 SCF Done:  E(RHF) =  -196.995498235     A.U. after   11 cycles
 E2 =    -0.4132167822D+00 EUMP2 =    -0.19740871501720D+03
 SCF Done:  E(RHF) =  -196.995442760     A.U. after   10 cycles
 E2 =    -0.4132747056D+00 EUMP2 =    -0.19740871746549D+03
 SCF Done:  E(RHF) =  -196.995420704     A.U. after    9 cycles
 E2 =    -0.4132970694D+00 EUMP2 =    -0.19740871777380D+03
 SCF Done:  E(RHF) =  -196.995412983     A.U. after    8 cycles
 E2 =    -0.4133049098D+00 EUMP2 =    -0.19740871789237D+03
 SCF Done:  E(RHF) =  -196.995415380     A.U. after    8 cycles
 E2 =    -0.4133026002D+00 EUMP2 =    -0.19740871798011D+03
 Optimization completed.
    -- Stationary point found.

 1\1\GINC-MALLOS69\FOpt\RMP2-FC\SDD\C2H4Br1F1Sn2\MARLIN\25-Oct-2024\0\\
 # opt freq=noraman mp2/sdd geom=allcheck\\Title Card Required\\0,1\C,2
 .3113983982,2.9705148213,-0.0478876451\C,1.7269168765,1.7425222151,0.0
 771689086\H,-1.2964869447,2.1417615059,-0.4728984431\H,-1.9969914434,-
 2.3118267637,-0.1592412419\H,0.6946822953,-2.6521317836,0.3089601976\S
 n,-0.3187056616,1.0031532995,0.3998875373\Sn,-0.4411751592,-1.59299836
 71,-0.4647049144\Br,1.2763914557,4.6281324403,-0.0254367238\H,3.388440
 0845,3.1146198783,-0.1676845204\F,2.6967912186,0.6384099941,0.05830041

 Normal termination of Gaussian 09 at Fri Oct 25 12:52:33 2024.

 -----------------------------------------------------------------
 #N Geom=AllCheck Guess=TCheck SCRF=Check GenChk RMP2(FC)/SDD Freq
 -----------------------------------------------------------------

 Title Card Required
 -------------------
 Redundant internal coordinates taken from checkpoint file:
 2-sddmp2.chk
 Charge =  0 Multiplicity = 1

                         Standard orientation:
 ---------------------------------------------------------------------
 Center     Atomic      Atomic             Coordinates (Angstroms)
 Number     Number       Type             X           Y           Z
 ---------------------------------------------------------------------
      1          6           0       -2.444958    1.259988    0.001354
      2          6           0       -1.104692    1.069266    0.181738
      3          1           0       -0.492969   -1.828548   -0.730075
      4          1           0        3.926661   -1.164154   -0.060013
      5          1           0        3.369000    1.413949    0.728993
      6         50           0        0.223985   -0.674678    0.351036
      7         50           0        2.771501    0.122237   -0.263463
      8         35           0       -3.687864   -0.226907   -0.251165
      9          1           0       -2.915354    2.246710   -0.014206
     10          9           0       -0.365388    2.324477    0.376547
 ---------------------------------------------------------------------

 SCF Done:  E(RHF) =  -196.995415380     A.U. after    1 cycles
 E2 =    -0.4133026034D+00 EUMP2 =    -0.19740871798329D+03
 E2 =    -0.4133026034D+00 EUMP2 =    -0.19740871798329D+03

 The electronic state is 1-A.
 Alpha  occ. eigenvalues --  -26.28685 -11.35438 -11.32454  -1.57403  -1.11037
 Alpha  occ. eigenvalues --   -0.99913  -0.78956  -0.69586  -0.67806  -0.65755
 Alpha  occ. eigenvalues --   -0.65506  -0.60532  -0.52728  -0.47677  -0.46907
 Alpha  occ. eigenvalues --   -0.44864  -0.42774  -0.40445  -0.37514  -0.28374
 Alpha virt. eigenvalues --   -0.03402   0.07941   0.08417   0.09714   0.10656
 Alpha virt. eigenvalues --    0.10724   0.12947   0.15345   0.15377   0.17766
 Alpha virt. eigenvalues --    0.22072   0.28233   0.31419   0.40327   0.42744

 Mulliken atomic charges:
              1
     1  C   -0.469252
     2  C    0.083489
     3  H   -0.162122
     4  H   -0.177243
     5  H   -0.155233
     6  Sn   0.556478
     7  Sn   0.407797
     8  Br   0.045738
     9  H    0.276061
    10  F   -0.405713
 Sum of Mulliken atomic charges =   0.00000

 Dipole moment (field-independent basis, Debye):
    X=              1.3696    Y=             -1.3443    Z=             -0.4675  Tot=              1.9752
 Quadrupole moment (field-independent basis, Debye-Ang):
   XX=            -65.4573   YY=            -70.9074   ZZ=            -69.2027
   XY=             -1.3121   XZ=             -4.7464   YZ=             -2.5002

  Exact polarizability: 200.543  25.417  99.925 -22.158   0.411  59.428
 Approx polarizability: 169.048  35.821  97.859 -32.469  -3.291  60.815

                     1                      2                      3
                     A                      A                      A
 Frequencies --    16.0134                39.1846                68.4012
 Red. masses --    24.4125                15.6807                36.7989
 Frc consts  --     0.0037                 0.0142                 0.1014
 IR Inten    --     0.0751                 0.1341                 0.1252

                     4                      5                      6
                     A                      A                      A
 Frequencies --   171.1077               189.0891               214.4988
 Red. masses --     5.1752                 1.4136                 4.3062
 Frc consts  --     0.0893                 0.0298                 0.1167
 IR Inten    --     2.1561                 5.0164                 3.2219

                     7                      8                      9
                     A                      A                      A
 Frequencies --   225.2461               312.1754               329.5143
 Red. masses --    13.0604                 1.6008                 5.0569
 Frc consts  --     0.3904                 0.0919                 0.3235
 IR Inten    --    24.9842                25.6420                 2.3012

                    10                     11                     12
                     A                      A                      A
 Frequencies --   352.1583               391.0919               415.3798
 Red. masses --     1.8306                 1.2750                 4.3237
 Frc consts  --     0.1338                 0.1149                 0.4395
 IR Inten    --     9.6160                 4.0164                 9.5786

                    13                     14                     15
                     A                      A                      A
 Frequencies --   480.9532               606.6034               757.6620
 Red. masses --     1.0846                 1.0786                 5.2736
 Frc consts  --     0.1478                 0.2338                 1.7837
 IR Inten    --     0.2476               124.4876                72.2068

                    16                     17                     18
                     A                      A                      A
 Frequencies --   776.2228               809.9490               940.7534
 Red. masses --     1.0333                 1.3264                 8.3771
 Frc consts  --     0.3668                 0.5127                 4.3681
 IR Inten    --   193.2757                65.7246                49.9865

                    19                     20                     21
                     A                      A                      A
 Frequencies --  1252.0631              1555.1847              1846.7579
 Red. masses --     1.2036                 9.4280                 1.0150
 Frc consts  --     1.1117                13.4348                 2.0396
 IR Inten    --    26.8152                 8.4921               308.0629

                    22                     23                     24
                     A                      A                      A
 Frequencies --  1853.2901              1864.3405              3229.4839
 Red. masses --     1.0163                 1.0170                 1.0933
 Frc consts  --     2.0567                 2.0826                 6.7182
 IR Inten    --    50.8014               326.4670                 6.8186

 - Thermochemistry -
 -------------------
 Temperature   298.150 Kelvin.  Pressure   1.00000 Atm.
 Atom     1 has atomic number  6 and mass  12.00000

 Molecular mass:   361.75164 amu.
 Principal axes and moments of inertia in atomic units:
                           1         2         3
     Eigenvalues --   850.518587644.256068268.73852
           X            0.99996  -0.00844   0.00270
           Y            0.00834   0.99942   0.03306
           Z           -0.00298  -0.03304   0.99945
 This molecule is an asymmetric top.
 Rotational symmetry number  1.
 Warning -- assumption of classical behavior for rotation
           may cause significant error
 Rotational temperatures (Kelvin)      0.10184     0.01133     0.01047
 Rotational constants (GHZ):           2.12193     0.23609     0.21826
 Zero-point vibrational energy     111833.6 (Joules/Mol)
                                   26.72888 (Kcal/Mol)
 Warning -- explicit consideration of  14 degrees of freedom as
           vibrations may cause significant error
 Vibrational temperatures:     23.04    56.38    98.41   246.19   272.06
          (Kelvin)            308.62   324.08   449.15   474.10   506.68
                              562.69   597.64   691.98   872.77  1090.11
                             1116.81  1165.33  1353.53  1801.44  2237.56
                             2657.07  2666.47  2682.37  4646.50

 Zero-point correction=                           0.042595 (Hartree/Particle)
 Thermal correction to Energy=                    0.052713
 Thermal correction to Enthalpy=                  0.053657
 Thermal correction to Gibbs Free Energy=         0.002001
 Sum of electronic and zero-point Energies=           -197.366123
 Sum of electronic and thermal Energies=              -197.356005
 Sum of electronic and thermal Enthalpies=            -197.355061
 Sum of electronic and thermal Free Energies=         -197.406717

                     E (Thermal)             CV                S
                      KCal/Mol        Cal/Mol-Kelvin    Cal/Mol-Kelvin
 Total                   33.078             32.119            108.720
 Electronic               0.000              0.000              0.000
 Translational            0.889              2.981             43.551
 Rotational               0.889              2.981             32.353
 Vibrational             31.300             26.157             32.816
 Vibration     1          0.593              1.986              7.076
 Vibration     2          0.594              1.981              5.300
 Vibration     3          0.598              1.969              4.199
 Vibration     4          0.626              1.878              2.423
 Vibration     5          0.633              1.855              2.237
 Vibration     6          0.644              1.819              2.005
 Vibration     7          0.650              1.803              1.917
 Vibration     8          0.701              1.650              1.351
 Vibration     9          0.712              1.617              1.262
 Vibration    10          0.729              1.571              1.157
 Vibration    11          0.759              1.489              0.996
 Vibration    12          0.779              1.437              0.908
 Vibration    13          0.837              1.292              0.708
 Vibration    14          0.965              1.018              0.438

 1\1\GINC-MALLOS69\Freq\RMP2-FC\SDD\C2H4Br1F1Sn2\MARLIN\25-Oct-2024\0\\
 #N Geom=AllCheck Guess=TCheck SCRF=Check GenChk RMP2(FC)/SDD Freq\\Tit
 le Card Required\\0,1\C,2.3113983982,2.9705148213,-0.0478876451\C,1.72
 69168765,1.7425222151,0.0771689086\H,-1.2964869447,2.1417615059,-0.472
 8984431\H,-1.9969914434,-2.3118267637,-0.1592412419\H,0.6946822953,-2.
 6521317836,0.3089601976\Sn,-0.3187056616,1.0031532995,0.3998875373\Sn,
 -0.4411751592,-1.5929983671,-0.4647049144\Br,1.2763914557,4.6281324403
 ,-0.0254367238\H,3.3884400845,3.1146198783,-0.1676845204\F,2.696791218

 Normal termination of Gaussian 09 at Fri Oct 25 12:52:54 2024.
