 Gaussian 09, Revision A.01,
 Gaussian 09:  EM64L-G09RevA.01  8-May-2009

 -----------------------------------------------
 # opt freq=noraman hf/lanl2dz geom=connectivity
 -----------------------------------------------

 -------------------
 Title Card Required
 -------------------
 Symbolic Z-matrix:
 Charge =  0 Multiplicity = 1

 SCF Done:  E(RHF) =  -196.761079904     A.U. after   15 cycles
 SCF Done:  E(RHF) =  -196.766960969     A.U. after   13 cycles
 SCF Done:  E(RHF) =  -196.773961072     A.U. after   16 cycles
 SCF Done:  E(RHF) =  -196.780898081     A.U. after   14 cycles
 SCF Done:  E(RHF) =  -196.785722293     A.U. after   14 cycles
 SCF Done:  E(RHF) =  -196.787799489     A.U. after   14 cycles
 SCF Done:  E(RHF) =  -196.788170095     A.U. after   14 cycles
 SCF Done:  E(RHF) =  -196.788462495     A.U. after   12 cycles
 SCF Done:  E(RHF) =  -196.788520135     A.U. after   12 cycles
 SCF Done:  E(RHF) =  -196.788542382     A.U. after   12 cycles
 SCF Done:  E(RHF) =  -196.788552291     A.U. after   11 cycles
 SCF Done:  E(RHF) =  -196.788560894     A.U. after   11 cycles
 SCF Done:  E(RHF) =  -196.788563703     A.U. after   11 cycles
 SCF Done:  E(RHF) =  -196.788564942     A.U. after   10 cycles
 SCF Done:  E(RHF) =  -196.788565413     A.U. after    9 cycles
 Optimization completed.
    -- Stationary point found.

 1\1\GINC-MALLOS71\FOpt\RHF\LANL2DZ\C2H4Br1F1Sn2\MARLIN\24-Oct-2024\0\\
 # opt freq=noraman hf/lanl2dz geom=connectivity\\Title Card Required\\
 0,1\C,2.2447099095,2.8997799815,-0.2223647805\C,1.8831279543,1.7255787
 164,0.2763818113\H,-0.9682068581,2.2611979408,-0.1859071272\H,-2.04688
 17738,-2.1730591459,-0.3520091235\H,0.5192081329,-2.7963271544,0.03477
 12761\Sn,-0.1214817627,0.9830198627,0.6070779228\Sn,-0.4637714083,-1.5
 37053685,-0.6037011916\F,2.8800236184,0.8422819864,0.6964064706\Br,4.0
 771488646,3.5029474901,-0.4151254343\H,1.5288189631,3.6128013874,-0.56

 Normal termination of Gaussian 09 at Thu Oct 24 12:12:29 2024.

 ----------------------------------------------------------------
 #N Geom=AllCheck Guess=TCheck SCRF=Check GenChk RHF/LANL2DZ Freq
 ----------------------------------------------------------------

 Title Card Required
 -------------------
 Redundant internal coordinates taken from checkpoint file:
 3-lanl2dz.chk
 Charge =  0 Multiplicity = 1

                         Standard orientation:
 ---------------------------------------------------------------------
 Center     Atomic      Atomic             Coordinates (Angstroms)
 Number     Number       Type             X           Y           Z
 ---------------------------------------------------------------------
      1          6           0        2.345525    0.394294   -0.445657
      2          6           0        1.254720    0.165730    0.272772
      3          1           0       -0.345091    2.046396   -1.319210
      4          1           0       -4.285755   -0.015703   -0.283509
      5          1           0       -2.947876   -1.807388    1.173483
      6         50           0       -0.668479    1.143441    0.115920
      7         50           0       -2.731177   -0.753424   -0.168854
      8          9           0        1.315954   -0.780323    1.298281
      9         35           0        4.050250   -0.490290   -0.180659
     10          1           0        2.357725    1.098772   -1.248262
 ---------------------------------------------------------------------

 SCF Done:  E(RHF) =  -196.788565413     A.U. after    1 cycles

 The electronic state is 1-A.
 Alpha  occ. eigenvalues --  -26.29474 -11.34203 -11.31091  -1.60565  -1.10225
 Alpha  occ. eigenvalues --   -0.97748  -0.79582  -0.72998  -0.67615  -0.67443
 Alpha  occ. eigenvalues --   -0.64923  -0.60924  -0.54345  -0.46936  -0.45979
 Alpha  occ. eigenvalues --   -0.44663  -0.41194  -0.40616  -0.37148  -0.29101
 Alpha virt. eigenvalues --   -0.04027   0.07320   0.07577   0.13066   0.14548
 Alpha virt. eigenvalues --    0.15552   0.17812   0.20790   0.25915   0.30022
 Alpha virt. eigenvalues --    0.31683   0.32799   0.33340   0.35309   0.36901

 Mulliken atomic charges:
              1
     1  C   -0.472906
     2  C    0.086003
     3  H   -0.200657
     4  H   -0.187554
     5  H   -0.172625
     6  Sn   0.593807
     7  Sn   0.427180
     8  F   -0.355163
     9  Br   0.027238
    10  H    0.254677
 Sum of Mulliken atomic charges =   0.00000

 Dipole moment (field-independent basis, Debye):
    X=             -2.9231    Y=              1.7396    Z=             -1.9546  Tot=              3.9231
 Quadrupole moment (field-independent basis, Debye-Ang):
   XX=            -73.3389   YY=            -64.7949   ZZ=            -70.8601
   XY=              6.3644   XZ=              0.2976   YZ=              3.0671

  Exact polarizability: 201.501  41.712 124.565  15.403   2.476  68.938
 Approx polarizability: 138.481  35.621 117.633  15.173   1.982  65.417

                     1                      2                      3
                     A                      A                      A
 Frequencies --    24.0960                37.3347               115.7869
 Red. masses --    24.7820                11.8902                23.0373
 Frc consts  --     0.0085                 0.0098                 0.1820
 IR Inten    --     1.5072                 2.1541                 1.0735

                     4                      5                      6
                     A                      A                      A
 Frequencies --   136.7048               140.3017               178.9584
 Red. masses --     4.0569                 5.4575                10.3420
 Frc consts  --     0.0447                 0.0633                 0.1951
 IR Inten    --    14.2020                12.8534                 4.7220

                     7                      8                      9
                     A                      A                      A
 Frequencies --   187.8831               252.0364               305.6326
 Red. masses --     1.2769                10.6136                 1.1084
 Frc consts  --     0.0266                 0.3972                 0.0610
 IR Inten    --    30.2659                55.2451                86.1775

                    10                     11                     12
                     A                      A                      A
 Frequencies --   361.7505               513.7074               557.9379
 Red. masses --     1.0679                 1.1319                 4.8333
 Frc consts  --     0.0823                 0.1760                 0.8865
 IR Inten    --     9.9267                 2.7980                 1.4459

                    13                     14                     15
                     A                      A                      A
 Frequencies --   635.7876               680.6274               783.5231
 Red. masses --     2.3891                 1.5805                 7.8132
 Frc consts  --     0.5690                 0.4314                 2.8261
 IR Inten    --    78.2018                83.8819                14.6878

                    16                     17                     18
                     A                      A                      A
 Frequencies --   836.1346               942.0445              1083.6672
 Red. masses --     1.0221                 1.2245                 6.0928
 Frc consts  --     0.4210                 0.6403                 4.2156
 IR Inten    --   280.2849                58.3816               117.7160

                    19                     20                     21
                     A                      A                      A
 Frequencies --  1369.9043              1781.8558              1906.6556
 Red. masses --     1.1862                 9.2587                 1.0189
 Frc consts  --     1.3115                17.3199                 2.1824
 IR Inten    --    27.8514                98.8476               185.4639

                    22                     23                     24
                     A                      A                      A
 Frequencies --  1914.3506              1927.0894              3461.1828
 Red. masses --     1.0158                 1.0169                 1.0958
 Frc consts  --     2.1934                 2.2250                 7.7346
 IR Inten    --   303.0048               329.2961                14.4267

 - Thermochemistry -
 -------------------
 Temperature   298.150 Kelvin.  Pressure   1.00000 Atm.
 Atom     1 has atomic number  6 and mass  12.00000

 Molecular mass:   361.75164 amu.
 Principal axes and moments of inertia in atomic units:
                           1         2         3
     Eigenvalues --  1107.498318655.371819426.66018
           X            0.99999   0.00116  -0.00296
           Y           -0.00130   0.99880  -0.04902
           Z            0.00290   0.04903   0.99879
 This molecule is an asymmetric top.
 Rotational symmetry number  1.
 Warning -- assumption of classical behavior for rotation
           may cause significant error
 Rotational temperatures (Kelvin)      0.07821     0.01001     0.00919
 Rotational constants (GHZ):           1.62957     0.20851     0.19145
 Zero-point vibrational energy     120433.8 (Joules/Mol)
                                   28.78436 (Kcal/Mol)
 Warning -- explicit consideration of  12 degrees of freedom as
           vibrations may cause significant error
 Vibrational temperatures:     34.67    53.72   166.59   196.69   201.86
          (Kelvin)            257.48   270.32   362.62   439.74   520.48
                              739.11   802.75   914.76   979.27  1127.31
                             1203.01  1355.39  1559.15  1970.98  2563.69
                             2743.25  2754.32  2772.65  4979.86

 Zero-point correction=                           0.045871 (Hartree/Particle)
 Thermal correction to Energy=                    0.055805
 Thermal correction to Enthalpy=                  0.056749
 Thermal correction to Gibbs Free Energy=         0.005343
 Sum of electronic and zero-point Energies=           -196.742695
 Sum of electronic and thermal Energies=              -196.732761
 Sum of electronic and thermal Enthalpies=            -196.731816
 Sum of electronic and thermal Free Energies=         -196.783222

                     E (Thermal)             CV                S
                      KCal/Mol        Cal/Mol-Kelvin    Cal/Mol-Kelvin
 Total                   35.018             30.762            108.193
 Electronic               0.000              0.000              0.000
 Translational            0.889              2.981             43.551
 Rotational               0.889              2.981             32.869
 Vibrational             33.241             24.801             31.774
 Vibration     1          0.593              1.985              6.264
 Vibration     2          0.594              1.982              5.396
 Vibration     3          0.608              1.936              3.170
 Vibration     4          0.614              1.917              2.849
 Vibration     5          0.615              1.913              2.800
 Vibration     6          0.629              1.868              2.339
 Vibration     7          0.633              1.856              2.249
 Vibration     8          0.664              1.759              1.716
 Vibration     9          0.696              1.663              1.386
 Vibration    10          0.736              1.551              1.115
 Vibration    11          0.869              1.220              0.625
 Vibration    12          0.913              1.122              0.528

 1\1\GINC-MALLOS71\Freq\RHF\LANL2DZ\C2H4Br1F1Sn2\MARLIN\24-Oct-2024\0\\
 #N Geom=AllCheck Guess=TCheck SCRF=Check GenChk RHF/LANL2DZ Freq\\Titl
 e Card Required\\0,1\C,2.2447099095,2.8997799815,-0.2223647805\C,1.883
 1279543,1.7255787164,0.2763818113\H,-0.9682068581,2.2611979408,-0.1859
 071272\H,-2.0468817738,-2.1730591459,-0.3520091235\H,0.5192081329,-2.7
 963271544,0.0347712761\Sn,-0.1214817627,0.9830198627,0.6070779228\Sn,-
 0.4637714083,-1.537053685,-0.6037011916\F,2.8800236184,0.8422819864,0.
 6964064706\Br,4.0771488646,3.5029474901,-0.4151254343\H,1.5288189631,3

 Normal termination of Gaussian 09 at Thu Oct 24 12:12:32 2024.
