 Gaussian 09, Revision A.01,
 Gaussian 09:  EM64L-G09RevA.01  8-May-2009

 --------------------------------------------
 # opt freq=noraman mp2/lanl2dz geom=allcheck
 --------------------------------------------

 Title Card Required
 -------------------
 Redundant internal coordinates taken from checkpoint file:
 3-mp2.chk
 Charge =  0 Multiplicity = 1

 SCF Done:  E(RHF) =  -196.788565413     A.U. after   16 cycles
 E2 =    -0.4041091485D+00 EUMP2 =    -0.19719267456120D+03
 SCF Done:  E(RHF) =  -196.783856527     A.U. after   13 cycles
 E2 =    -0.4135028182D+00 EUMP2 =    -0.19719735934502D+03
 SCF Done:  E(RHF) =  -196.783436051     A.U. after   13 cycles
 E2 =    -0.4141933068D+00 EUMP2 =    -0.19719762935726D+03
 SCF Done:  E(RHF) =  -196.783195467     A.U. after   12 cycles
 E2 =    -0.4145129999D+00 EUMP2 =    -0.19719770846664D+03
 SCF Done:  E(RHF) =  -196.783119827     A.U. after   12 cycles
 E2 =    -0.4145927404D+00 EUMP2 =    -0.19719771256729D+03
 SCF Done:  E(RHF) =  -196.783197177     A.U. after   11 cycles
 E2 =    -0.4145375035D+00 EUMP2 =    -0.19719773468071D+03
 SCF Done:  E(RHF) =  -196.783275334     A.U. after   12 cycles
 E2 =    -0.4144669013D+00 EUMP2 =    -0.19719774223532D+03
 SCF Done:  E(RHF) =  -196.783278341     A.U. after   10 cycles
 E2 =    -0.4144648406D+00 EUMP2 =    -0.19719774318132D+03
 SCF Done:  E(RHF) =  -196.783275424     A.U. after    9 cycles
 E2 =    -0.4144679245D+00 EUMP2 =    -0.19719774334884D+03
 SCF Done:  E(RHF) =  -196.783274281     A.U. after   10 cycles
 E2 =    -0.4144692765D+00 EUMP2 =    -0.19719774355744D+03
 SCF Done:  E(RHF) =  -196.783276576     A.U. after    8 cycles
 E2 =    -0.4144670202D+00 EUMP2 =    -0.19719774359604D+03
 Optimization completed.
    -- Stationary point found.
 Normal termination of Gaussian 09 at Thu Oct 24 12:19:35 2024.

 ---------------------------------------------------------------------
 #N Geom=AllCheck Guess=TCheck SCRF=Check GenChk RMP2(FC)/LANL2DZ Freq
 ---------------------------------------------------------------------

 Title Card Required
 -------------------
 Redundant internal coordinates taken from checkpoint file:
 3-mp2.chk
 Charge =  0 Multiplicity = 1

                         Standard orientation:
 ---------------------------------------------------------------------
 Center     Atomic      Atomic             Coordinates (Angstroms)
 Number     Number       Type             X           Y           Z
 ---------------------------------------------------------------------
      1          6           0        2.395472    0.461135   -0.388735
      2          6           0        1.243965    0.117131    0.260125
      3          1           0       -0.398036    2.178386   -1.161552
      4          1           0       -4.281341    0.135704   -0.189391
      5          1           0       -2.887437   -1.824165    1.122034
      6         50           0       -0.697474    1.077991    0.149744
      7         50           0       -2.759999   -0.702128   -0.191751
      8          9           0        1.286327   -1.000525    1.184549
      9         35           0        4.132089   -0.429673   -0.184625
     10          1           0        2.403764    1.290653   -1.098111
 ---------------------------------------------------------------------

 SCF Done:  E(RHF) =  -196.783276576     A.U. after    1 cycles
 E2 =    -0.4144670168D+00 EUMP2 =    -0.19719774359265D+03
 E2 =    -0.4144670168D+00 EUMP2 =    -0.19719774359265D+03

 The electronic state is 1-A.
 Alpha  occ. eigenvalues --  -26.28975 -11.35292 -11.32585  -1.58125  -1.09216
 Alpha  occ. eigenvalues --   -0.97601  -0.78785  -0.71794  -0.66968  -0.65975
 Alpha  occ. eigenvalues --   -0.64016  -0.60535  -0.54445  -0.46775  -0.46431
 Alpha  occ. eigenvalues --   -0.44852  -0.41560  -0.40922  -0.37379  -0.28954
 Alpha virt. eigenvalues --   -0.03892   0.07406   0.07786   0.12107   0.13688
 Alpha virt. eigenvalues --    0.14573   0.17417   0.20455   0.24337   0.29497
 Alpha virt. eigenvalues --    0.31133   0.32758   0.33085   0.35187   0.36961

 Mulliken atomic charges:
              1
     1  C   -0.449874
     2  C    0.080917
     3  H   -0.193553
     4  H   -0.183979
     5  H   -0.166527
     6  Sn   0.607222
     7  Sn   0.402360
     8  F   -0.380589
     9  Br   0.037378
    10  H    0.246646
 Sum of Mulliken atomic charges =   0.00000

 Dipole moment (field-independent basis, Debye):
    X=             -2.6650    Y=              2.2487    Z=             -1.8922  Tot=              3.9673
 Quadrupole moment (field-independent basis, Debye-Ang):
   XX=            -72.2485   YY=            -65.8465   ZZ=            -70.9490
   XY=              6.5020   XZ=              0.3462   YZ=              3.1764

  Exact polarizability: 200.581  31.280 113.593  13.921  -2.115  63.476
 Approx polarizability: 146.827  36.886 118.421  18.568   3.068  63.299

                     1                      2                      3
                     A                      A                      A
 Frequencies --    26.4993                33.9375               118.3315
 Red. masses --    26.6924                12.2154                 5.8345
 Frc consts  --     0.0110                 0.0083                 0.0481
 IR Inten    --     0.3201                 1.9349                 0.9327

                     4                      5                      6
                     A                      A                      A
 Frequencies --   128.0629               151.3428               180.2694
 Red. masses --     5.2058                20.7267                 4.6683
 Frc consts  --     0.0503                 0.2797                 0.0894
 IR Inten    --     1.7856                 2.8338                 1.2952

                     7                      8                      9
                     A                      A                      A
 Frequencies --   193.9340               236.9772               336.6897
 Red. masses --     1.4466                15.6072                 1.0456
 Frc consts  --     0.0321                 0.5164                 0.0698
 IR Inten    --     9.2232                30.1936                20.4321

                    10                     11                     12
                     A                      A                      A
 Frequencies --   390.0327               469.2324               490.1563
 Red. masses --     1.0626                 2.6935                 1.4365
 Frc consts  --     0.0952                 0.3494                 0.2033
 IR Inten    --     6.5721                 1.6590                 1.0532

                    13                     14                     15
                     A                      A                      A
 Frequencies --   590.1861               631.6123               702.8408
 Red. masses --     1.7580                 2.0533                 7.8981
 Frc consts  --     0.3608                 0.4826                 2.2987
 IR Inten    --    81.3377                37.1311                 8.6129

                    16                     17                     18
                     A                      A                      A
 Frequencies --   775.4103               802.5568               964.0723
 Red. masses --     1.0220                 1.1889                 6.5065
 Frc consts  --     0.3620                 0.4512                 3.5630
 IR Inten    --   227.7514                47.0996                55.7424

                    19                     20                     21
                     A                      A                      A
 Frequencies --  1271.7926              1560.2725              1842.7683
 Red. masses --     1.1777                 9.0989                 1.0164
 Frc consts  --     1.1223                13.0508                 2.0336
 IR Inten    --     5.1157                83.0634               104.2598

                    22                     23                     24
                     A                      A                      A
 Frequencies --  1845.4545              1862.1668              3239.7568
 Red. masses --     1.0147                 1.0174                 1.0930
 Frc consts  --     2.0362                 2.0786                 6.7595
 IR Inten    --   257.8573               219.3514                10.9093

 - Thermochemistry -
 -------------------
 Temperature   298.150 Kelvin.  Pressure   1.00000 Atm.
 Atom     1 has atomic number  6 and mass  12.00000

 Molecular mass:   361.75164 amu.
 Principal axes and moments of inertia in atomic units:
                           1         2         3
     Eigenvalues --  1014.468248913.235209626.12233
           X            1.00000   0.00107  -0.00292
           Y           -0.00123   0.99853  -0.05420
           Z            0.00286   0.05421   0.99853
 This molecule is an asymmetric top.
 Rotational symmetry number  1.
 Warning -- assumption of classical behavior for rotation
           may cause significant error
 Rotational temperatures (Kelvin)      0.08538     0.00972     0.00900
 Rotational constants (GHZ):           1.77900     0.20248     0.18748
 Zero-point vibrational energy     112714.3 (Joules/Mol)
                                   26.93936 (Kcal/Mol)
 Warning -- explicit consideration of  13 degrees of freedom as
           vibrations may cause significant error
 Vibrational temperatures:     38.13    48.83   170.25   184.25   217.75
          (Kelvin)            259.37   279.03   340.96   484.42   561.17
                              675.12   705.22   849.15   908.75  1011.23
                             1115.64  1154.70  1387.08  1829.82  2244.88
                             2651.33  2655.19  2679.24  4661.28

 Zero-point correction=                           0.042931 (Hartree/Particle)
 Thermal correction to Energy=                    0.053029
 Thermal correction to Enthalpy=                  0.053973
 Thermal correction to Gibbs Free Energy=         0.002398
 Sum of electronic and zero-point Energies=           -197.154813
 Sum of electronic and thermal Energies=              -197.144715
 Sum of electronic and thermal Enthalpies=            -197.143770
 Sum of electronic and thermal Free Energies=         -197.195346

                     E (Thermal)             CV                S
                      KCal/Mol        Cal/Mol-Kelvin    Cal/Mol-Kelvin
 Total                   33.276             31.757            108.549
 Electronic               0.000              0.000              0.000
 Translational            0.889              2.981             43.551
 Rotational               0.889              2.981             32.831
 Vibrational             31.499             25.796             32.167
 Vibration     1          0.593              1.985              6.076
 Vibration     2          0.594              1.983              5.585
 Vibration     3          0.608              1.934              3.127
 Vibration     4          0.611              1.925              2.975
 Vibration     5          0.619              1.901              2.655
 Vibration     6          0.629              1.866              2.326
 Vibration     7          0.635              1.848              2.190
 Vibration     8          0.656              1.784              1.825
 Vibration     9          0.717              1.602              1.228
 Vibration    10          0.758              1.491              1.000
 Vibration    11          0.826              1.318              0.740
 Vibration    12          0.846              1.272              0.683
 Vibration    13          0.948              1.053              0.467

 Optimization completed.
    -- Stationary point found.
 Normal termination of Gaussian 09 at Thu Oct 24 12:19:50 2024.
