 Gaussian 09, Revision A.01,
 Gaussian 09:  EM64L-G09RevA.01  8-May-2009

 ---------------------------------------
 # opt freq=noraman hf/sdd geom=allcheck
 ---------------------------------------

 Title Card Required
 -------------------
 Redundant internal coordinates taken from checkpoint file:
 3-sdd.chk
 Charge =  0 Multiplicity = 1

 SCF Done:  E(RHF) =  -197.004352782     A.U. after   15 cycles
 SCF Done:  E(RHF) =  -197.004526526     A.U. after   12 cycles
 SCF Done:  E(RHF) =  -197.004542974     A.U. after   11 cycles
 SCF Done:  E(RHF) =  -197.004543883     A.U. after   10 cycles
 SCF Done:  E(RHF) =  -197.004544530     A.U. after   10 cycles
 SCF Done:  E(RHF) =  -197.004544860     A.U. after   10 cycles
 SCF Done:  E(RHF) =  -197.004545108     A.U. after    9 cycles
 SCF Done:  E(RHF) =  -197.004545283     A.U. after   10 cycles
 Optimization completed.
    -- Stationary point found.
 Normal termination of Gaussian 09 at Thu Oct 24 12:29:17 2024.

 ------------------------------------------------------------
 #N Geom=AllCheck Guess=TCheck SCRF=Check GenChk RHF/SDD Freq
 ------------------------------------------------------------

 Title Card Required
 -------------------
 Redundant internal coordinates taken from checkpoint file:
 3-sdd.chk
 Charge =  0 Multiplicity = 1

                         Standard orientation:
 ---------------------------------------------------------------------
 Center     Atomic      Atomic             Coordinates (Angstroms)
 Number     Number       Type             X           Y           Z
 ---------------------------------------------------------------------
      1          6           0        2.354041    0.393705   -0.441459
      2          6           0        1.263067    0.157930    0.274458
      3          1           0       -0.353890    2.055194   -1.321409
      4          1           0       -4.294264   -0.044592   -0.284334
      5          1           0       -2.923977   -1.835460    1.161891
      6         50           0       -0.678405    1.150673    0.116945
      7         50           0       -2.724460   -0.758495   -0.169149
      8          9           0        1.323209   -0.794575    1.292721
      9         35           0        4.049611   -0.487060   -0.181134
     10          1           0        2.367452    1.104448   -1.238749
 ---------------------------------------------------------------------

 SCF Done:  E(RHF) =  -197.004545283     A.U. after    1 cycles

 The electronic state is 1-A.
 Alpha  occ. eigenvalues --  -26.29541 -11.34559 -11.31279  -1.60540  -1.11336
 Alpha  occ. eigenvalues --   -1.00287  -0.79699  -0.73045  -0.68037  -0.67487
 Alpha  occ. eigenvalues --   -0.65221  -0.61140  -0.54688  -0.46979  -0.45850
 Alpha  occ. eigenvalues --   -0.44442  -0.41357  -0.40475  -0.37108  -0.28927
 Alpha virt. eigenvalues --   -0.03782   0.07475   0.07985   0.10085   0.11334
 Alpha virt. eigenvalues --    0.11681   0.13907   0.15159   0.16956   0.18572
 Alpha virt. eigenvalues --    0.22052   0.28207   0.33115   0.42141   0.44031

 Mulliken atomic charges:
              1
     1  C   -0.496592
     2  C    0.090323
     3  H   -0.190270
     4  H   -0.177721
     5  H   -0.162142
     6  Sn   0.561128
     7  Sn   0.415289
     8  F   -0.357375
     9  Br   0.067416
    10  H    0.249944
 Sum of Mulliken atomic charges =   0.00000

 Dipole moment (field-independent basis, Debye):
    X=             -3.1590    Y=              1.7219    Z=             -1.9289  Tot=              4.0823
 Quadrupole moment (field-independent basis, Debye-Ang):
   XX=            -72.5288   YY=            -64.5524   ZZ=            -70.5501
   XY=              6.2457   XZ=              0.2030   YZ=              2.7749

  Exact polarizability: 200.694  39.184 122.806  15.518   2.878  67.900
 Approx polarizability: 139.077  35.767 118.990  15.590   2.655  64.837

                     1                      2                      3
                     A                      A                      A
 Frequencies --    24.8483                37.1765               115.5632
 Red. masses --    24.7966                11.9586                24.6096
 Frc consts  --     0.0090                 0.0097                 0.1936
 IR Inten    --     1.4329                 1.9731                 1.5680

                     4                      5                      6
                     A                      A                      A
 Frequencies --   137.2781               141.2564               178.8619
 Red. masses --     3.9792                 5.8385                11.2611
 Frc consts  --     0.0442                 0.0686                 0.2123
 IR Inten    --     7.3972                15.3450                 5.2495

                     7                      8                      9
                     A                      A                      A
 Frequencies --   190.5717               252.0797               311.6033
 Red. masses --     1.2613                10.9756                 1.0938
 Frc consts  --     0.0270                 0.4109                 0.0626
 IR Inten    --    30.2716                53.9542                91.5442

                    10                     11                     12
                     A                      A                      A
 Frequencies --   363.9775               515.5012               556.3041
 Red. masses --     1.0672                 1.1403                 4.6869
 Frc consts  --     0.0833                 0.1785                 0.8546
 IR Inten    --    10.5276                 2.7345                 1.3424

                    13                     14                     15
                     A                      A                      A
 Frequencies --   639.4236               680.9973               785.9589
 Red. masses --     1.8131                 2.0122                 7.5558
 Frc consts  --     0.4368                 0.5498                 2.7500
 IR Inten    --   103.7184                56.0769                15.5559

                    16                     17                     18
                     A                      A                      A
 Frequencies --   833.0296               941.9434              1081.3998
 Red. masses --     1.0222                 1.2254                 6.0683
 Frc consts  --     0.4179                 0.6406                 4.1811
 IR Inten    --   275.7794                57.8310               118.7178

                    19                     20                     21
                     A                      A                      A
 Frequencies --  1372.6714              1782.7913              1903.1234
 Red. masses --     1.1899                 9.1908                 1.0192
 Frc consts  --     1.3210                17.2109                 2.1750
 IR Inten    --    32.5485                97.1095               229.9480

                    22                     23                     24
                     A                      A                      A
 Frequencies --  1912.8373              1925.7230              3462.2690
 Red. masses --     1.0162                 1.0166                 1.0959
 Frc consts  --     2.1908                 2.2212                 7.7399
 IR Inten    --   366.2162               396.7495                15.8136

 - Thermochemistry -
 -------------------
 Temperature   298.150 Kelvin.  Pressure   1.00000 Atm.
 Atom     1 has atomic number  6 and mass  12.00000

 Molecular mass:   361.75164 amu.
 Principal axes and moments of inertia in atomic units:
                           1         2         3
     Eigenvalues --  1117.698838646.892499430.48792
           X            0.99999   0.00126  -0.00290
           Y           -0.00140   0.99882  -0.04850
           Z            0.00284   0.04850   0.99882
 This molecule is an asymmetric top.
 Rotational symmetry number  1.
 Warning -- assumption of classical behavior for rotation
           may cause significant error
 Rotational temperatures (Kelvin)      0.07749     0.01002     0.00918
 Rotational constants (GHZ):           1.61469     0.20872     0.19137
 Zero-point vibrational energy     120507.0 (Joules/Mol)
                                   28.80185 (Kcal/Mol)
 Warning -- explicit consideration of  12 degrees of freedom as
           vibrations may cause significant error
 Vibrational temperatures:     35.75    53.49   166.27   197.51   203.24
          (Kelvin)            257.34   274.19   362.69   448.33   523.68
                              741.69   800.40   919.99   979.80  1130.82
                             1198.54  1355.24  1555.89  1974.97  2565.04
                             2738.17  2752.14  2770.68  4981.43

 Zero-point correction=                           0.045899 (Hartree/Particle)
 Thermal correction to Energy=                    0.055813
 Thermal correction to Enthalpy=                  0.056757
 Thermal correction to Gibbs Free Energy=         0.005415
 Sum of electronic and zero-point Energies=           -196.958647
 Sum of electronic and thermal Energies=              -196.948732
 Sum of electronic and thermal Enthalpies=            -196.947788
 Sum of electronic and thermal Free Energies=         -196.999130

                     E (Thermal)             CV                S
                      KCal/Mol        Cal/Mol-Kelvin    Cal/Mol-Kelvin
 Total                   35.023             30.735            108.058
 Electronic               0.000              0.000              0.000
 Translational            0.889              2.981             43.551
 Rotational               0.889              2.981             32.877
 Vibrational             33.246             24.773             31.630
 Vibration     1          0.593              1.985              6.203
 Vibration     2          0.594              1.982              5.404
 Vibration     3          0.608              1.936              3.173
 Vibration     4          0.614              1.916              2.841
 Vibration     5          0.615              1.912              2.787
 Vibration     6          0.629              1.868              2.340
 Vibration     7          0.634              1.853              2.222
 Vibration     8          0.664              1.759              1.716
 Vibration     9          0.700              1.652              1.354
 Vibration    10          0.738              1.546              1.105
 Vibration    11          0.871              1.216              0.620
 Vibration    12          0.912              1.126              0.531

 Normal termination of Gaussian 09 at Thu Oct 24 12:29:20 2024.
