 Gaussian 09, Revision A.01,
 Gaussian 09:  EM64L-G09RevA.01  8-May-2009

 ----------------------------------------
 # opt freq=noraman mp2/sdd geom=allcheck
 ----------------------------------------

 Title Card Required
 -------------------
 Redundant internal coordinates taken from checkpoint file:
 3-sddmp2.chk
 Charge =  0 Multiplicity = 1

 SCF Done:  E(RHF) =  -197.004545283     A.U. after   15 cycles
 E2 =    -0.4027894011D+00 EUMP2 =    -0.19740733468384D+03
 SCF Done:  E(RHF) =  -196.999763406     A.U. after   13 cycles
 E2 =    -0.4122057053D+00 EUMP2 =    -0.19741196911084D+03
 SCF Done:  E(RHF) =  -196.999464789     A.U. after   12 cycles
 E2 =    -0.4127383029D+00 EUMP2 =    -0.19741220309186D+03
 SCF Done:  E(RHF) =  -196.999249460     A.U. after   12 cycles
 E2 =    -0.4130265875D+00 EUMP2 =    -0.19741227604796D+03
 SCF Done:  E(RHF) =  -196.999166279     A.U. after   12 cycles
 E2 =    -0.4131104648D+00 EUMP2 =    -0.19741227674339D+03
 SCF Done:  E(RHF) =  -196.999231063     A.U. after   11 cycles
 E2 =    -0.4130661987D+00 EUMP2 =    -0.19741229726204D+03
 SCF Done:  E(RHF) =  -196.999291404     A.U. after   11 cycles
 E2 =    -0.4130123286D+00 EUMP2 =    -0.19741230373216D+03
 SCF Done:  E(RHF) =  -196.999294099     A.U. after    9 cycles
 E2 =    -0.4130101291D+00 EUMP2 =    -0.19741230422810D+03
 Optimization completed.
    -- Stationary point found.

 1\1\GINC-MALLOS66\FOpt\RMP2-FC\SDD\C2H4Br1F1Sn2\MARLIN\25-Oct-2024\0\\
 # opt freq=noraman mp2/sdd geom=allcheck\\Title Card Required\\0,1\C,2
 .2733575144,2.9358359212,-0.2007230795\C,1.8883177754,1.7003991996,0.2
 352467347\H,-1.0437180218,2.2392838256,-0.2302505264\H,-2.0902740597,-
 2.1626373269,-0.2956043202\H,0.5641911271,-2.7526061896,0.1007676109\S
 n,-0.1521455154,0.936606234,0.5102001673\Sn,-0.4846934657,-1.558506895
 3,-0.6011674453\F,2.9198683647,0.7538351483,0.613430851\Br,4.123251801
 1,3.5490141591,-0.3611518297\H,1.5345401199,3.6799433039,-0.5035770428

 Normal termination of Gaussian 09 at Fri Oct 25 12:52:27 2024.

 -----------------------------------------------------------------
 #N Geom=AllCheck Guess=TCheck SCRF=Check GenChk RMP2(FC)/SDD Freq
 -----------------------------------------------------------------

 Title Card Required
 -------------------
 Redundant internal coordinates taken from checkpoint file:
 3-sddmp2.chk
 Charge =  0 Multiplicity = 1

                         Standard orientation:
 ---------------------------------------------------------------------
 Center     Atomic      Atomic             Coordinates (Angstroms)
 Number     Number       Type             X           Y           Z
 ---------------------------------------------------------------------
      1          6           0        2.401925    0.458247   -0.396693
      2          6           0        1.254917    0.123438    0.264294
      3          1           0       -0.408987    2.179164   -1.188060
      4          1           0       -4.296293    0.083664   -0.201046
      5          1           0       -2.863555   -1.851959    1.122580
      6         50           0       -0.709770    1.097320    0.145836
      7         50           0       -2.749593   -0.718718   -0.189488
      8          9           0        1.300991   -0.981680    1.202215
      9         35           0        4.127747   -0.436383   -0.184533
     10          1           0        2.415840    1.277482   -1.117752
 ---------------------------------------------------------------------

 SCF Done:  E(RHF) =  -196.999294099     A.U. after    1 cycles
 E2 =    -0.4130101277D+00 EUMP2 =    -0.19741230422674D+03
 E2 =    -0.4130101277D+00 EUMP2 =    -0.19741230422674D+03

 The electronic state is 1-A.
 Alpha  occ. eigenvalues --  -26.29017 -11.35611 -11.32730  -1.58074  -1.10384
 Alpha  occ. eigenvalues --   -0.99931  -0.78864  -0.71927  -0.67405  -0.65905
 Alpha  occ. eigenvalues --   -0.64224  -0.60711  -0.54652  -0.46730  -0.46207
 Alpha  occ. eigenvalues --   -0.44650  -0.41646  -0.40754  -0.37291  -0.28849
 Alpha virt. eigenvalues --   -0.03711   0.07215   0.08179   0.09948   0.11270
 Alpha virt. eigenvalues --    0.11628   0.13124   0.14706   0.15471   0.18202
 Alpha virt. eigenvalues --    0.21500   0.26531   0.32511   0.41253   0.43972

 Mulliken atomic charges:
              1
     1  C   -0.476818
     2  C    0.084126
     3  H   -0.184232
     4  H   -0.174811
     5  H   -0.156729
     6  Sn   0.576907
     7  Sn   0.395325
     8  F   -0.382570
     9  Br   0.075177
    10  H    0.243627
 Sum of Mulliken atomic charges =   0.00000

 Dipole moment (field-independent basis, Debye):
    X=             -2.9682    Y=              2.1937    Z=             -1.9059  Tot=              4.1539
 Quadrupole moment (field-independent basis, Debye-Ang):
   XX=            -71.6904   YY=            -65.3784   ZZ=            -70.7299
   XY=              6.3683   XZ=              0.1736   YZ=              2.9141

  Exact polarizability: 199.991  28.909 113.219  13.823  -1.835  63.344
 Approx polarizability: 146.333  36.732 120.234  18.472   3.479  63.352

                     1                      2                      3
                     A                      A                      A
 Frequencies --    26.3651                33.6130               117.6509
 Red. masses --    25.9440                12.2643                 5.7045
 Frc consts  --     0.0106                 0.0082                 0.0465
 IR Inten    --     0.4275                 1.8448                 1.0261

                     4                      5                      6
                     A                      A                      A
 Frequencies --   127.6330               150.0731               178.6547
 Red. masses --     5.3613                20.3378                 5.4218
 Frc consts  --     0.0515                 0.2699                 0.1020
 IR Inten    --     1.5029                 3.4220                 1.0387

                     7                      8                      9
                     A                      A                      A
 Frequencies --   194.3419               235.4571               338.0614
 Red. masses --     1.3905                15.3853                 1.0448
 Frc consts  --     0.0309                 0.5026                 0.0704
 IR Inten    --     8.7868                30.6679                22.5383

                    10                     11                     12
                     A                      A                      A
 Frequencies --   388.7765               466.4016               490.1659
 Red. masses --     1.0623                 3.6062                 1.2673
 Frc consts  --     0.0946                 0.4622                 0.1794
 IR Inten    --     6.2385                 1.7285                 0.9175

                    13                     14                     15
                     A                      A                      A
 Frequencies --   589.3961               630.7934               704.8285
 Red. masses --     1.5460                 2.4631                 7.6488
 Frc consts  --     0.3164                 0.5774                 2.2388
 IR Inten    --    94.2467                25.1479                 9.3721

                    16                     17                     18
                     A                      A                      A
 Frequencies --   775.2125               797.4210               959.5750
 Red. masses --     1.0221                 1.1867                 6.5951
 Frc consts  --     0.3619                 0.4446                 3.5779
 IR Inten    --   221.6892                47.5287                57.9323

                    19                     20                     21
                     A                      A                      A
 Frequencies --  1277.7946              1559.8886              1834.5261
 Red. masses --     1.1769                 9.0234                 1.0166
 Frc consts  --     1.1322                12.9363                 2.0159
 IR Inten    --     7.2091                89.6465               167.0346

                    22                     23                     24
                     A                      A                      A
 Frequencies --  1840.0045              1856.5681              3243.6140
 Red. masses --     1.0148                 1.0172                 1.0934
 Frc consts  --     2.0243                 2.0658                 6.7778
 IR Inten    --   306.8502               276.6614                11.8459

 - Thermochemistry -
 -------------------
 Temperature   298.150 Kelvin.  Pressure   1.00000 Atm.
 Atom     1 has atomic number  6 and mass  12.00000

 Molecular mass:   361.75164 amu.
 Principal axes and moments of inertia in atomic units:
                           1         2         3
     Eigenvalues --  1044.131648894.322539631.28566
           X            1.00000   0.00119  -0.00288
           Y           -0.00134   0.99860  -0.05297
           Z            0.00281   0.05297   0.99859
 This molecule is an asymmetric top.
 Rotational symmetry number  1.
 Warning -- assumption of classical behavior for rotation
           may cause significant error
 Rotational temperatures (Kelvin)      0.08295     0.00974     0.00899
 Rotational constants (GHZ):           1.72846     0.20291     0.18738
 Zero-point vibrational energy     112549.6 (Joules/Mol)
                                   26.89999 (Kcal/Mol)
 Warning -- explicit consideration of  13 degrees of freedom as
           vibrations may cause significant error
 Vibrational temperatures:     37.93    48.36   169.27   183.64   215.92
          (Kelvin)            257.04   279.61   338.77   486.39   559.36
                              671.05   705.24   848.01   907.57  1014.09
                             1115.36  1147.31  1380.61  1838.46  2244.33
                             2639.47  2647.35  2671.18  4666.83

 Zero-point correction=                           0.042868 (Hartree/Particle)
 Thermal correction to Energy=                    0.052980
 Thermal correction to Enthalpy=                  0.053924
 Thermal correction to Gibbs Free Energy=         0.002289
 Sum of electronic and zero-point Energies=           -197.369436
 Sum of electronic and thermal Energies=              -197.359324
 Sum of electronic and thermal Enthalpies=            -197.358380
 Sum of electronic and thermal Free Energies=         -197.410016

                     E (Thermal)             CV                S
                      KCal/Mol        Cal/Mol-Kelvin    Cal/Mol-Kelvin
 Total                   33.245             31.782            108.676
 Electronic               0.000              0.000              0.000
 Translational            0.889              2.981             43.551
 Rotational               0.889              2.981             32.858
 Vibrational             31.468             25.820             32.267
 Vibration     1          0.593              1.985              6.086
 Vibration     2          0.594              1.983              5.604
 Vibration     3          0.608              1.935              3.139
 Vibration     4          0.611              1.926              2.981
 Vibration     5          0.618              1.903              2.671
 Vibration     6          0.629              1.869              2.342
 Vibration     7          0.635              1.848              2.186
 Vibration     8          0.655              1.787              1.837
 Vibration     9          0.718              1.599              1.221
 Vibration    10          0.757              1.494              1.005
 Vibration    11          0.824              1.325              0.748
 Vibration    12          0.846              1.272              0.683
 Vibration    13          0.947              1.054              0.468

 1\1\GINC-MALLOS66\Freq\RMP2-FC\SDD\C2H4Br1F1Sn2\MARLIN\25-Oct-2024\0\\
 #N Geom=AllCheck Guess=TCheck SCRF=Check GenChk RMP2(FC)/SDD Freq\\Tit
 le Card Required\\0,1\C,2.2733575144,2.9358359212,-0.2007230795\C,1.88
 83177754,1.7003991996,0.2352467347\H,-1.0437180218,2.2392838256,-0.230
 2505264\H,-2.0902740597,-2.1626373269,-0.2956043202\H,0.5641911271,-2.
 7526061896,0.1007676109\Sn,-0.1521455154,0.936606234,0.5102001673\Sn,-
 0.4846934657,-1.5585068953,-0.6011674453\F,2.9198683647,0.7538351483,0
 .613430851\Br,4.1232518011,3.5490141591,-0.3611518297\H,1.5345401199,3

 Normal termination of Gaussian 09 at Fri Oct 25 12:52:44 2024.
