 Gaussian 09, Revision A.01,
 Gaussian 09:  EM64L-G09RevA.01  8-May-2009

 -----------------------------------------------
 # opt freq=noraman hf/lanl2dz geom=connectivity
 -----------------------------------------------

 -------------------
 Title Card Required
 -------------------
 Symbolic Z-matrix:
 Charge =  0 Multiplicity = 1

 SCF Done:  E(RHF) =  -196.760463184     A.U. after   16 cycles
 SCF Done:  E(RHF) =  -196.766988988     A.U. after   13 cycles
 SCF Done:  E(RHF) =  -196.774612254     A.U. after   16 cycles
 SCF Done:  E(RHF) =  -196.781139414     A.U. after   14 cycles
 SCF Done:  E(RHF) =  -196.784737363     A.U. after   13 cycles
 SCF Done:  E(RHF) =  -196.785967569     A.U. after   13 cycles
 SCF Done:  E(RHF) =  -196.785890630     A.U. after   12 cycles
 SCF Done:  E(RHF) =  -196.786139556     A.U. after   11 cycles
 SCF Done:  E(RHF) =  -196.786151683     A.U. after   11 cycles
 SCF Done:  E(RHF) =  -196.786157651     A.U. after   12 cycles
 SCF Done:  E(RHF) =  -196.786160883     A.U. after   10 cycles
 SCF Done:  E(RHF) =  -196.786163241     A.U. after   11 cycles
 SCF Done:  E(RHF) =  -196.786163866     A.U. after   11 cycles
 Optimization completed.
    -- Stationary point found.

 1\1\GINC-MALLOS25\FOpt\RHF\LANL2DZ\C2H4Br1F1Sn2\MARLIN\24-Oct-2024\0\\
 # opt freq=noraman hf/lanl2dz geom=connectivity\\Title Card Required\\
 0,1\C,2.2844134646,2.9221330505,-0.0355482958\C,1.9136091805,1.6591198
 219,0.0384120647\H,-1.0143523733,2.1934284133,-0.5691076088\H,-2.08190
 6599,-2.1690087588,-0.134079309\H,0.481133468,-2.7170915719,0.40403414
 48\Sn,-0.1109269243,0.9822367886,0.2434303581\Sn,-0.4888066767,-1.6627
 821013,-0.5578802334\Br,4.083364828,3.6158613738,-0.1698424459\F,1.379
 2360879,3.958675623,-0.0096315264\H,2.6953557842,0.9216400908,0.034690

 Normal termination of Gaussian 09 at Thu Oct 24 10:12:30 2024.

 ----------------------------------------------------------------
 #N Geom=AllCheck Guess=TCheck SCRF=Check GenChk RHF/LANL2DZ Freq
 ----------------------------------------------------------------

 Title Card Required
 -------------------
 Redundant internal coordinates taken from checkpoint file:
 4-lanl2dz.chk
 Charge =  0 Multiplicity = 1

                         Standard orientation:
 ---------------------------------------------------------------------
 Center     Atomic      Atomic             Coordinates (Angstroms)
 Number     Number       Type             X           Y           Z
 ---------------------------------------------------------------------
      1          6           0        2.367769    0.217573   -0.062358
      2          6           0        1.165045   -0.251618    0.205003
      3          1           0       -0.326857    2.081942   -1.042496
      4          1           0       -4.336827    0.352881    0.093402
      5          1           0       -3.092214   -1.736809    1.208422
      6         50           0       -0.642097    0.902242    0.162623
      7         50           0       -2.946230   -0.644506   -0.119432
      8         35           0        4.046331   -0.738377    0.001767
      9          9           0        2.583723    1.527155   -0.426773
     10          1           0        1.100256   -1.281765    0.504365
 ---------------------------------------------------------------------

 SCF Done:  E(RHF) =  -196.786163866     A.U. after    1 cycles

 The electronic state is 1-A.
 Alpha  occ. eigenvalues --  -26.32697 -11.41032 -11.26641  -1.64522  -1.11364
 Alpha  occ. eigenvalues --   -1.00979  -0.81547  -0.72539  -0.71079  -0.69529
 Alpha  occ. eigenvalues --   -0.64667  -0.60897  -0.56149  -0.48159  -0.46140
 Alpha  occ. eigenvalues --   -0.44198  -0.43130  -0.39678  -0.39180  -0.28079
 Alpha virt. eigenvalues --   -0.03147   0.08036   0.08657   0.12770   0.13518
 Alpha virt. eigenvalues --    0.16000   0.17911   0.21991   0.27413   0.30221
 Alpha virt. eigenvalues --    0.31541   0.32896   0.34103   0.35558   0.36084

 Mulliken atomic charges:
              1
     1  C    0.148445
     2  C   -0.556253
     3  H   -0.169175
     4  H   -0.185357
     5  H   -0.188216
     6  Sn   0.654804
     7  Sn   0.333220
     8  Br   0.050568
     9  F   -0.314671
    10  H    0.226635
 Sum of Mulliken atomic charges =   0.00000

 Dipole moment (field-independent basis, Debye):
    X=             -1.4615    Y=             -1.0411    Z=              0.4409  Tot=              1.8478
 Quadrupole moment (field-independent basis, Debye-Ang):
   XX=            -75.0048   YY=            -67.7648   ZZ=            -70.4270
   XY=             -2.1541   XZ=              4.9617   YZ=              2.6082

  Exact polarizability: 223.259  39.849 116.162  23.773   3.671  59.368
 Approx polarizability: 158.406  37.849 112.056  21.741   3.611  54.580

                     1                      2                      3
                     A                      A                      A
 Frequencies --    20.3684                35.4859               102.9587
 Red. masses --    12.9008                20.1055                 8.9139
 Frc consts  --     0.0032                 0.0149                 0.0557
 IR Inten    --     1.7956                 2.4675                 3.4334

                     4                      5                      6
                     A                      A                      A
 Frequencies --   113.3876               150.6283               180.6634
 Red. masses --     2.4574                12.3576                 1.4723
 Frc consts  --     0.0186                 0.1652                 0.0283
 IR Inten    --     1.2972                 6.5337                55.4389

                     7                      8                      9
                     A                      A                      A
 Frequencies --   193.2407               287.8546               346.5703
 Red. masses --    20.7712                 1.0857                15.4552
 Frc consts  --     0.4570                 0.0530                 1.0937
 IR Inten    --    24.7137               126.0199                 7.7259

                    10                     11                     12
                     A                      A                      A
 Frequencies --   401.7370               493.4610               577.9546
 Red. masses --     1.0450                 1.1087                 4.4567
 Frc consts  --     0.0994                 0.1591                 0.8771
 IR Inten    --     8.1078                 5.2996                 4.9131

                    13                     14                     15
                     A                      A                      A
 Frequencies --   599.6005               657.7354               788.5553
 Red. masses --     1.9675                 2.5202                 3.4686
 Frc consts  --     0.4168                 0.6424                 1.2708
 IR Inten    --   156.0428                58.0163                13.1654

                    16                     17                     18
                     A                      A                      A
 Frequencies --   829.2799               968.0897              1062.2684
 Red. masses --     1.0216                 1.2135                 3.8409
 Frc consts  --     0.4139                 0.6701                 2.5536
 IR Inten    --   251.9480                28.5900               137.9940

                    19                     20                     21
                     A                      A                      A
 Frequencies --  1359.3278              1794.6240              1905.4085
 Red. masses --     1.4164                10.4248                 1.0163
 Frc consts  --     1.5420                19.7818                 2.1740
 IR Inten    --    63.5034               545.6358               230.4819

                    22                     23                     24
                     A                      A                      A
 Frequencies --  1908.9277              1941.2433              3383.4997
 Red. masses --     1.0165                 1.0166                 1.0916
 Frc consts  --     2.1825                 2.2572                 7.3627
 IR Inten    --   283.4389               249.7837                14.1216

 - Thermochemistry -
 -------------------
 Temperature   298.150 Kelvin.  Pressure   1.00000 Atm.
 Atom     1 has atomic number  6 and mass  12.00000

 Molecular mass:   361.75164 amu.
 Principal axes and moments of inertia in atomic units:
                           1         2         3
     Eigenvalues --   908.585889337.66043**********
           X            1.00000   0.00025  -0.00255
           Y           -0.00034   0.99937  -0.03536
           Z            0.00254   0.03536   0.99937
 This molecule is an asymmetric top.
 Rotational symmetry number  1.
 Warning -- assumption of classical behavior for rotation
           may cause significant error
 Rotational temperatures (Kelvin)      0.09533     0.00928     0.00852
 Rotational constants (GHZ):           1.98632     0.19328     0.17754
 Zero-point vibrational energy     120241.9 (Joules/Mol)
                                   28.73850 (Kcal/Mol)
 Warning -- explicit consideration of  13 degrees of freedom as
           vibrations may cause significant error
 Vibrational temperatures:     29.31    51.06   148.13   163.14   216.72
          (Kelvin)            259.93   278.03   414.16   498.64   578.01
                              709.98   831.55   862.69   946.33  1134.55
                             1193.15  1392.86  1528.37  1955.77  2582.06
                             2741.45  2746.52  2793.01  4868.10

 Zero-point correction=                           0.045798 (Hartree/Particle)
 Thermal correction to Energy=                    0.055674
 Thermal correction to Enthalpy=                  0.056619
 Thermal correction to Gibbs Free Energy=         0.005082
 Sum of electronic and zero-point Energies=           -196.740366
 Sum of electronic and thermal Energies=              -196.730490
 Sum of electronic and thermal Enthalpies=            -196.729545
 Sum of electronic and thermal Free Energies=         -196.781082

                     E (Thermal)             CV                S
                      KCal/Mol        Cal/Mol-Kelvin    Cal/Mol-Kelvin
 Total                   34.936             30.662            108.468
 Electronic               0.000              0.000              0.000
 Translational            0.889              2.981             43.551
 Rotational               0.889              2.981             32.822
 Vibrational             33.159             24.701             32.095
 Vibration     1          0.593              1.986              6.598
 Vibration     2          0.594              1.982              5.496
 Vibration     3          0.605              1.947              3.398
 Vibration     4          0.607              1.938              3.210
 Vibration     5          0.618              1.902              2.664
 Vibration     6          0.630              1.866              2.322
 Vibration     7          0.635              1.849              2.197
 Vibration     8          0.685              1.696              1.487
 Vibration     9          0.725              1.582              1.182
 Vibration    10          0.767              1.466              0.956
 Vibration    11          0.849              1.265              0.675
 Vibration    12          0.934              1.079              0.489
 Vibration    13          0.958              1.033              0.450

 1\1\GINC-MALLOS25\Freq\RHF\LANL2DZ\C2H4Br1F1Sn2\MARLIN\24-Oct-2024\0\\
 #N Geom=AllCheck Guess=TCheck SCRF=Check GenChk RHF/LANL2DZ Freq\\Titl
 e Card Required\\0,1\C,2.2844134646,2.9221330505,-0.0355482958\C,1.913
 6091805,1.6591198219,0.0384120647\H,-1.0143523733,2.1934284133,-0.5691
 076088\H,-2.081906599,-2.1690087588,-0.134079309\H,0.481133468,-2.7170
 915719,0.4040341448\Sn,-0.1109269243,0.9822367886,0.2434303581\Sn,-0.4
 888066767,-1.6627821013,-0.5578802334\Br,4.083364828,3.6158613738,-0.1
 698424459\F,1.3792360879,3.958675623,-0.0096315264\H,2.6953557842,0.92

 Normal termination of Gaussian 09 at Thu Oct 24 10:12:33 2024.
