 Gaussian 09, Revision A.01,
 Gaussian 09:  EM64L-G09RevA.01  8-May-2009

 --------------------------------------------
 # opt freq=noraman mp2/lanl2dz geom=allcheck
 --------------------------------------------

 Title Card Required
 -------------------
 Redundant internal coordinates taken from checkpoint file:
 4-mp2.chk
 Charge =  0 Multiplicity = 1

 SCF Done:  E(RHF) =  -196.786163866     A.U. after   16 cycles
 E2 =    -0.4073030807D+00 EUMP2 =    -0.19719346694656D+03
 SCF Done:  E(RHF) =  -196.781398767     A.U. after   13 cycles
 E2 =    -0.4167147374D+00 EUMP2 =    -0.19719811350466D+03
 SCF Done:  E(RHF) =  -196.781069996     A.U. after   17 cycles
 E2 =    -0.4172747215D+00 EUMP2 =    -0.19719834471727D+03
 SCF Done:  E(RHF) =  -196.780864621     A.U. after   12 cycles
 E2 =    -0.4175243236D+00 EUMP2 =    -0.19719838894487D+03
 SCF Done:  E(RHF) =  -196.780762830     A.U. after   12 cycles
 E2 =    -0.4176139280D+00 EUMP2 =    -0.19719837675818D+03
 SCF Done:  E(RHF) =  -196.780886922     A.U. after   11 cycles
 E2 =    -0.4175121077D+00 EUMP2 =    -0.19719839902973D+03
 SCF Done:  E(RHF) =  -196.780916079     A.U. after   12 cycles
 E2 =    -0.4174849883D+00 EUMP2 =    -0.19719840106774D+03
 SCF Done:  E(RHF) =  -196.780912616     A.U. after   11 cycles
 E2 =    -0.4174889986D+00 EUMP2 =    -0.19719840161421D+03
 SCF Done:  E(RHF) =  -196.780905349     A.U. after    9 cycles
 E2 =    -0.4174964610D+00 EUMP2 =    -0.19719840180977D+03
 Optimization completed.
    -- Stationary point found.
 Normal termination of Gaussian 09 at Thu Oct 24 10:19:30 2024.

 ---------------------------------------------------------------------
 #N Geom=AllCheck Guess=TCheck SCRF=Check GenChk RMP2(FC)/LANL2DZ Freq
 ---------------------------------------------------------------------

 Title Card Required
 -------------------
 Redundant internal coordinates taken from checkpoint file:
 4-mp2.chk
 Charge =  0 Multiplicity = 1

                         Standard orientation:
 ---------------------------------------------------------------------
 Center     Atomic      Atomic             Coordinates (Angstroms)
 Number     Number       Type             X           Y           Z
 ---------------------------------------------------------------------
      1          6           0       -2.359272    0.212170    0.065729
      2          6           0       -1.128227   -0.255048   -0.262923
      3          1           0        0.407101    2.108445    1.016338
      4          1           0        4.351775    0.307954   -0.020408
      5          1           0        3.044825   -1.829638   -1.135913
      6         50           0        0.687478    0.900145   -0.189397
      7         50           0        2.916081   -0.654605    0.135687
      8         35           0       -4.086909   -0.722813   -0.002989
      9          9           0       -2.548667    1.553123    0.527483
     10          1           0       -1.076818   -1.286149   -0.634087
 ---------------------------------------------------------------------

 SCF Done:  E(RHF) =  -196.780905349     A.U. after    1 cycles
 E2 =    -0.4174964607D+00 EUMP2 =    -0.19719840180950D+03
 E2 =    -0.4174964607D+00 EUMP2 =    -0.19719840180950D+03

 The electronic state is 1-A.
 Alpha  occ. eigenvalues --  -26.31915 -11.41635 -11.27857  -1.61616  -1.09936
 Alpha  occ. eigenvalues --   -1.00292  -0.79904  -0.70722  -0.69204  -0.69102
 Alpha  occ. eigenvalues --   -0.64259  -0.60424  -0.55874  -0.47768  -0.46262
 Alpha  occ. eigenvalues --   -0.44550  -0.43354  -0.39903  -0.39084  -0.28038
 Alpha virt. eigenvalues --   -0.03099   0.07706   0.08743   0.11913   0.12602
 Alpha virt. eigenvalues --    0.15325   0.17476   0.21610   0.25290   0.29801
 Alpha virt. eigenvalues --    0.31513   0.32562   0.33596   0.35463   0.36143

 Mulliken atomic charges:
              1
     1  C    0.152345
     2  C   -0.545254
     3  H   -0.160675
     4  H   -0.180958
     5  H   -0.184606
     6  Sn   0.641608
     7  Sn   0.338270
     8  Br   0.057100
     9  F   -0.341625
    10  H    0.223794
 Sum of Mulliken atomic charges =   0.00000

 Dipole moment (field-independent basis, Debye):
    X=              1.7383    Y=             -1.3148    Z=             -0.6449  Tot=              2.2730
 Quadrupole moment (field-independent basis, Debye-Ang):
   XX=            -74.1118   YY=            -68.2151   ZZ=            -70.5193
   XY=              2.8760   XZ=              5.0836   YZ=             -2.7099

  Exact polarizability: 211.823 -28.260 111.106  17.650   1.060  56.637
 Approx polarizability: 160.896 -37.895 115.069  23.231  -3.992  55.532

                     1                      2                      3
                     A                      A                      A
 Frequencies --    22.0249                35.5925               100.5089
 Red. masses --    13.1676                19.6699                 2.9699
 Frc consts  --     0.0038                 0.0147                 0.0177
 IR Inten    --     1.4497                 1.1090                 1.5679

                     4                      5                      6
                     A                      A                      A
 Frequencies --   112.3933               161.5323               191.0293
 Red. masses --     8.7576                17.2513                 1.8237
 Frc consts  --     0.0652                 0.2652                 0.0392
 IR Inten    --     0.3782                 4.5152                 7.3039

                     7                      8                      9
                     A                      A                      A
 Frequencies --   198.7432               311.7549               329.5285
 Red. masses --     4.3924                 7.1117                 1.1345
 Frc consts  --     0.1022                 0.4072                 0.0726
 IR Inten    --    13.4445                 0.6050                37.1364

                    10                     11                     12
                     A                      A                      A
 Frequencies --   393.7330               458.7988               502.1494
 Red. masses --     1.0524                 1.2184                 4.6477
 Frc consts  --     0.0961                 0.1511                 0.6905
 IR Inten    --    12.6981                 5.4090                 1.8227

                    13                     14                     15
                     A                      A                      A
 Frequencies --   566.4778               604.3543               711.1523
 Red. masses --     1.4786                 3.5262                 3.3966
 Frc consts  --     0.2795                 0.7588                 1.0121
 IR Inten    --   110.8760                32.3583                 4.6284

                    16                     17                     18
                     A                      A                      A
 Frequencies --   773.3017               821.1704               928.0856
 Red. masses --     1.0214                 1.1699                 4.5904
 Frc consts  --     0.3599                 0.4648                 2.3296
 IR Inten    --   222.6497                30.0159               124.8158

                    19                     20                     21
                     A                      A                      A
 Frequencies --  1247.8227              1572.0246              1842.1152
 Red. masses --     1.3171                10.6344                 1.0140
 Frc consts  --     1.2083                15.4840                 2.0273
 IR Inten    --    33.1044               422.9531               211.5783

                    22                     23                     24
                     A                      A                      A
 Frequencies --  1851.3816              1866.2023              3188.1851
 Red. masses --     1.0179                 1.0164                 1.0899
 Frc consts  --     2.0556                 2.0857                 6.5270
 IR Inten    --   130.7721               215.0143                13.5606

 - Thermochemistry -
 -------------------
 Temperature   298.150 Kelvin.  Pressure   1.00000 Atm.
 Atom     1 has atomic number  6 and mass  12.00000

 Molecular mass:   361.75164 amu.
 Principal axes and moments of inertia in atomic units:
                           1         2         3
     Eigenvalues --   926.157799376.55111**********
           X            1.00000  -0.00044  -0.00230
           Y            0.00052   0.99926   0.03838
           Z            0.00228  -0.03838   0.99926
 This molecule is an asymmetric top.
 Rotational symmetry number  1.
 Warning -- assumption of classical behavior for rotation
           may cause significant error
 Rotational temperatures (Kelvin)      0.09352     0.00924     0.00850
 Rotational constants (GHZ):           1.94863     0.19247     0.17701
 Zero-point vibrational energy     112389.5 (Joules/Mol)
                                   26.86174 (Kcal/Mol)
 Warning -- explicit consideration of  14 degrees of freedom as
           vibrations may cause significant error
 Vibrational temperatures:     31.69    51.21   144.61   161.71   232.41
          (Kelvin)            274.85   285.95   448.55   474.12   566.49
                              660.11   722.48   815.03   869.53  1023.19
                             1112.61  1181.48  1335.31  1795.34  2261.79
                             2650.39  2663.72  2685.05  4587.08

 Zero-point correction=                           0.042807 (Hartree/Particle)
 Thermal correction to Energy=                    0.052864
 Thermal correction to Enthalpy=                  0.053808
 Thermal correction to Gibbs Free Energy=         0.002131
 Sum of electronic and zero-point Energies=           -197.155595
 Sum of electronic and thermal Energies=              -197.145538
 Sum of electronic and thermal Enthalpies=            -197.144594
 Sum of electronic and thermal Free Energies=         -197.196271

                     E (Thermal)             CV                S
                      KCal/Mol        Cal/Mol-Kelvin    Cal/Mol-Kelvin
 Total                   33.173             31.744            108.765
 Electronic               0.000              0.000              0.000
 Translational            0.889              2.981             43.551
 Rotational               0.889              2.981             32.848
 Vibrational             31.395             25.783             32.365
 Vibration     1          0.593              1.985              6.443
 Vibration     2          0.594              1.982              5.490
 Vibration     3          0.604              1.949              3.444
 Vibration     4          0.607              1.939              3.227
 Vibration     5          0.622              1.890              2.532
 Vibration     6          0.634              1.852              2.218
 Vibration     7          0.637              1.842              2.145
 Vibration     8          0.700              1.651              1.353
 Vibration     9          0.712              1.617              1.262
 Vibration    10          0.761              1.484              0.986
 Vibration    11          0.817              1.341              0.770
 Vibration    12          0.857              1.245              0.653
 Vibration    13          0.922              1.104              0.511
 Vibration    14          0.963              1.023              0.442

 Normal termination of Gaussian 09 at Thu Oct 24 10:19:44 2024.
