 Gaussian 09, Revision A.01,
 Gaussian 09:  EM64L-G09RevA.01  8-May-2009

 ---------------------------------------
 # opt freq=noraman hf/sdd geom=allcheck
 ---------------------------------------

 Title Card Required
 -------------------
 Redundant internal coordinates taken from checkpoint file:
 4-sdd.chk
 Charge =  0 Multiplicity = 1

 SCF Done:  E(RHF) =  -197.001725584     A.U. after   15 cycles
 SCF Done:  E(RHF) =  -197.001915999     A.U. after   12 cycles
 SCF Done:  E(RHF) =  -197.001937076     A.U. after   12 cycles
 SCF Done:  E(RHF) =  -197.001936617     A.U. after   11 cycles
 SCF Done:  E(RHF) =  -197.001944384     A.U. after   11 cycles
 SCF Done:  E(RHF) =  -197.001947430     A.U. after   12 cycles
 SCF Done:  E(RHF) =  -197.001947933     A.U. after   11 cycles
 Optimization completed.
    -- Stationary point found.
 Normal termination of Gaussian 09 at Thu Oct 24 10:29:17 2024.

 ------------------------------------------------------------
 #N Geom=AllCheck Guess=TCheck SCRF=Check GenChk RHF/SDD Freq
 ------------------------------------------------------------

 Title Card Required
 -------------------
 Redundant internal coordinates taken from checkpoint file:
 4-sdd.chk
 Charge =  0 Multiplicity = 1

                         Standard orientation:
 ---------------------------------------------------------------------
 Center     Atomic      Atomic             Coordinates (Angstroms)
 Number     Number       Type             X           Y           Z
 ---------------------------------------------------------------------
      1          6           0        2.374542    0.209501   -0.057538
      2          6           0        1.172042   -0.268345    0.192412
      3          1           0       -0.337755    2.065543   -1.078895
      4          1           0       -4.354919    0.329313    0.066185
      5          1           0       -3.103115   -1.757176    1.203250
      6         50           0       -0.649414    0.910670    0.155663
      7         50           0       -2.941750   -0.648970   -0.114212
      8         35           0        4.047545   -0.737216    0.000781
      9          9           0        2.589650    1.526185   -0.397036
     10          1           0        1.103528   -1.302708    0.473640
 ---------------------------------------------------------------------

 SCF Done:  E(RHF) =  -197.001947926     A.U. after    1 cycles

 The electronic state is 1-A.
 Alpha  occ. eigenvalues --  -26.32566 -11.40975 -11.27031  -1.64273  -1.12534
 Alpha  occ. eigenvalues --   -1.03138  -0.81535  -0.72522  -0.70868  -0.69898
 Alpha  occ. eigenvalues --   -0.65040  -0.61090  -0.56357  -0.48113  -0.45926
 Alpha  occ. eigenvalues --   -0.44190  -0.43017  -0.39537  -0.39006  -0.27889
 Alpha virt. eigenvalues --   -0.02855   0.07641   0.08858   0.09901   0.10799
 Alpha virt. eigenvalues --    0.11124   0.13479   0.14714   0.17314   0.18486
 Alpha virt. eigenvalues --    0.23218   0.28477   0.33058   0.37853   0.46739

 Mulliken atomic charges:
              1
     1  C    0.134531
     2  C   -0.566252
     3  H   -0.160823
     4  H   -0.175246
     5  H   -0.177050
     6  Sn   0.617600
     7  Sn   0.327958
     8  Br   0.091372
     9  F   -0.317287
    10  H    0.225197
 Sum of Mulliken atomic charges =   0.00000

 Dipole moment (field-independent basis, Debye):
    X=             -1.7990    Y=             -1.1358    Z=              0.4322  Tot=              2.1710
 Quadrupole moment (field-independent basis, Debye-Ang):
   XX=            -74.0538   YY=            -67.1667   ZZ=            -70.0846
   XY=             -2.3479   XZ=              4.6716   YZ=              2.3103

  Exact polarizability: 221.110  37.955 114.550  23.582   3.750  57.961
 Approx polarizability: 158.706  38.709 113.005  22.036   3.985  53.587

                     1                      2                      3
                     A                      A                      A
 Frequencies --    19.6150                36.3193               104.3886
 Red. masses --    12.5838                19.8246                11.5534
 Frc consts  --     0.0029                 0.0154                 0.0742
 IR Inten    --     1.9097                 2.2232                 1.7660

                     4                      5                      6
                     A                      A                      A
 Frequencies --   113.0155               148.9437               185.6930
 Red. masses --     2.4998                13.0379                 1.4152
 Frc consts  --     0.0188                 0.1704                 0.0288
 IR Inten    --     1.0807                 5.0866                40.6565

                     7                      8                      9
                     A                      A                      A
 Frequencies --   193.6031               298.3027               348.6629
 Red. masses --    21.6458                 1.0788                14.7228
 Frc consts  --     0.4780                 0.0566                 1.0545
 IR Inten    --    32.6543               133.0110                 8.5453

                    10                     11                     12
                     A                      A                      A
 Frequencies --   400.0996               495.1000               574.9237
 Red. masses --     1.0458                 1.1096                 4.1832
 Frc consts  --     0.0986                 0.1602                 0.8147
 IR Inten    --     7.6014                 5.1964                 7.4291

                    13                     14                     15
                     A                      A                      A
 Frequencies --   596.7536               658.4802               788.6786
 Red. masses --     2.0400                 2.3481                 3.7961
 Frc consts  --     0.4280                 0.5999                 1.3912
 IR Inten    --   151.9899                59.4633                17.4545

                    16                     17                     18
                     A                      A                      A
 Frequencies --   826.6467               963.9155              1063.5111
 Red. masses --     1.0212                 1.2125                 3.8449
 Frc consts  --     0.4112                 0.6638                 2.5623
 IR Inten    --   250.0476                28.5083               144.4514

                    19                     20                     21
                     A                      A                      A
 Frequencies --  1351.9096              1794.8074              1904.5970
 Red. masses --     1.4180                10.3629                 1.0174
 Frc consts  --     1.5269                19.6683                 2.1745
 IR Inten    --    62.2720               526.1924               227.0225

                    22                     23                     24
                     A                      A                      A
 Frequencies --  1908.1587              1937.3111              3388.3486
 Red. masses --     1.0156                 1.0168                 1.0918
 Frc consts  --     2.1787                 2.2484                 7.3856
 IR Inten    --   401.5752               300.7070                13.1156

 - Thermochemistry -
 -------------------
 Temperature   298.150 Kelvin.  Pressure   1.00000 Atm.
 Atom     1 has atomic number  6 and mass  12.00000

 Molecular mass:   361.75164 amu.
 Principal axes and moments of inertia in atomic units:
                           1         2         3
     Eigenvalues --   913.905389335.10797**********
           X            1.00000   0.00030  -0.00244
           Y           -0.00039   0.99940  -0.03472
           Z            0.00243   0.03472   0.99939
 This molecule is an asymmetric top.
 Rotational symmetry number  1.
 Warning -- assumption of classical behavior for rotation
           may cause significant error
 Rotational temperatures (Kelvin)      0.09477     0.00928     0.00851
 Rotational constants (GHZ):           1.97476     0.19333     0.17738
 Zero-point vibrational energy     120235.4 (Joules/Mol)
                                   28.73694 (Kcal/Mol)
 Warning -- explicit consideration of  13 degrees of freedom as
           vibrations may cause significant error
 Vibrational temperatures:     28.22    52.26   150.19   162.60   214.30
          (Kelvin)            267.17   278.55   429.19   501.65   575.65
                              712.34   827.19   858.59   947.40  1134.73
                             1189.36  1386.86  1530.15  1945.09  2582.32
                             2740.29  2745.41  2787.36  4875.07

 Zero-point correction=                           0.045795 (Hartree/Particle)
 Thermal correction to Energy=                    0.055653
 Thermal correction to Enthalpy=                  0.056597
 Thermal correction to Gibbs Free Energy=         0.005095
 Sum of electronic and zero-point Energies=           -196.956153
 Sum of electronic and thermal Energies=              -196.946295
 Sum of electronic and thermal Enthalpies=            -196.945351
 Sum of electronic and thermal Free Energies=         -196.996852

                     E (Thermal)             CV                S
                      KCal/Mol        Cal/Mol-Kelvin    Cal/Mol-Kelvin
 Total                   34.923             30.655            108.395
 Electronic               0.000              0.000              0.000
 Translational            0.889              2.981             43.551
 Rotational               0.889              2.981             32.829
 Vibrational             33.145             24.693             32.015
 Vibration     1          0.593              1.986              6.673
 Vibration     2          0.594              1.982              5.450
 Vibration     3          0.605              1.946              3.371
 Vibration     4          0.607              1.939              3.216
 Vibration     5          0.618              1.904              2.686
 Vibration     6          0.632              1.859              2.270
 Vibration     7          0.635              1.849              2.193
 Vibration     8          0.691              1.677              1.426
 Vibration     9          0.726              1.578              1.172
 Vibration    10          0.766              1.470              0.962
 Vibration    11          0.851              1.261              0.670
 Vibration    12          0.931              1.085              0.495
 Vibration    13          0.955              1.039              0.455

 Normal termination of Gaussian 09 at Thu Oct 24 10:29:21 2024.
