 Gaussian 09, Revision A.01,
 Gaussian 09:  EM64L-G09RevA.01  8-May-2009

 ----------------------------------------
 # opt freq=noraman mp2/sdd geom=allcheck
 ----------------------------------------

 Title Card Required
 -------------------
 Redundant internal coordinates taken from checkpoint file:
 4-sddmp2.chk
 Charge =  0 Multiplicity = 1

 SCF Done:  E(RHF) =  -197.001947933     A.U. after   15 cycles
 E2 =    -0.4051036488D+00 EUMP2 =    -0.19740705158141D+03
 SCF Done:  E(RHF) =  -196.997093294     A.U. after   13 cycles
 E2 =    -0.4146100785D+00 EUMP2 =    -0.19741170337241D+03
 SCF Done:  E(RHF) =  -196.996847818     A.U. after   16 cycles
 E2 =    -0.4150638193D+00 EUMP2 =    -0.19741191163719D+03
 SCF Done:  E(RHF) =  -196.996665821     A.U. after   12 cycles
 E2 =    -0.4152845668D+00 EUMP2 =    -0.19741195038802D+03
 SCF Done:  E(RHF) =  -196.996577332     A.U. after   12 cycles
 E2 =    -0.4153617434D+00 EUMP2 =    -0.19741193907502D+03
 SCF Done:  E(RHF) =  -196.996673915     A.U. after   11 cycles
 E2 =    -0.4152833024D+00 EUMP2 =    -0.19741195721785D+03
 SCF Done:  E(RHF) =  -196.996692452     A.U. after   11 cycles
 E2 =    -0.4152657743D+00 EUMP2 =    -0.19741195822595D+03
 SCF Done:  E(RHF) =  -196.996690506     A.U. after   10 cycles
 E2 =    -0.4152679977D+00 EUMP2 =    -0.19741195850326D+03
 SCF Done:  E(RHF) =  -196.996685894     A.U. after   10 cycles
 E2 =    -0.4152727238D+00 EUMP2 =    -0.19741195861733D+03
 SCF Done:  E(RHF) =  -196.996685192     A.U. after    9 cycles
 E2 =    -0.4152734731D+00 EUMP2 =    -0.19741195866473D+03
 Optimization completed.
    -- Stationary point found.

 1\1\GINC-MALLOS72\FOpt\RMP2-FC\SDD\C2H4Br1F1Sn2\MARLIN\25-Oct-2024\0\\
 # opt freq=noraman mp2/sdd geom=allcheck\\Title Card Required\\0,1\C,2
 .3105368178,2.9212220347,-0.0512068101\C,1.9265586401,1.6265777121,0.0
 769360186\H,-1.0752091639,2.1772592723,-0.5428466789\H,-2.1137480345,-
 2.1656220092,-0.1754310371\H,0.5311009435,-2.715151658,0.3473374372\Sn
 ,-0.1444244097,0.9713639413,0.2877967604\Sn,-0.4989574006,-1.620623080
 9,-0.5328508974\Br,4.1237115433,3.6452680034,-0.2019845522\F,1.3564691
 228,3.9872006489,-0.0842292101\H,2.7250821813,0.8767178654,0.120956189

 Normal termination of Gaussian 09 at Fri Oct 25 10:52:34 2024.

 -----------------------------------------------------------------
 #N Geom=AllCheck Guess=TCheck SCRF=Check GenChk RMP2(FC)/SDD Freq
 -----------------------------------------------------------------

 Title Card Required
 -------------------
 Redundant internal coordinates taken from checkpoint file:
 4-sddmp2.chk
 Charge =  0 Multiplicity = 1

                         Standard orientation:
 ---------------------------------------------------------------------
 Center     Atomic      Atomic             Coordinates (Angstroms)
 Number     Number       Type             X           Y           Z
 ---------------------------------------------------------------------
      1          6           0       -2.371337    0.206603    0.061538
      2          6           0       -1.141752   -0.270653   -0.255185
      3          1           0        0.405810    2.096972    1.047656
      4          1           0        4.370591    0.294785   -0.004394
      5          1           0        3.056694   -1.837543   -1.143405
      6         50           0        0.693049    0.908810   -0.183716
      7         50           0        2.920097   -0.659064    0.131848
      8         35           0       -4.093177   -0.723881   -0.002070
      9          9           0       -2.562217    1.553849    0.504415
     10          1           0       -1.090752   -1.306050   -0.611862
 ---------------------------------------------------------------------

 SCF Done:  E(RHF) =  -196.996685192     A.U. after    1 cycles
 E2 =    -0.4152734714D+00 EUMP2 =    -0.19741195866310D+03
 E2 =    -0.4152734714D+00 EUMP2 =    -0.19741195866310D+03

 The electronic state is 1-A.
 Alpha  occ. eigenvalues --  -26.31830 -11.41622 -11.28254  -1.61416  -1.11298
 Alpha  occ. eigenvalues --   -1.02320  -0.79924  -0.70705  -0.69618  -0.68951
 Alpha  occ. eigenvalues --   -0.64492  -0.60612  -0.56047  -0.47717  -0.46025
 Alpha  occ. eigenvalues --   -0.44454  -0.43227  -0.39691  -0.38939  -0.27908
 Alpha virt. eigenvalues --   -0.02874   0.07107   0.08925   0.09730   0.10884
 Alpha virt. eigenvalues --    0.11179   0.12822   0.13997   0.16270   0.18055
 Alpha virt. eigenvalues --    0.22621   0.26379   0.32932   0.37516   0.46640

 Mulliken atomic charges:
              1
     1  C    0.136310
     2  C   -0.555651
     3  H   -0.153575
     4  H   -0.171994
     5  H   -0.174617
     6  Sn   0.611596
     7  Sn   0.332046
     8  Br   0.096907
     9  F   -0.342819
    10  H    0.221797
 Sum of Mulliken atomic charges =   0.00000

 Dipole moment (field-independent basis, Debye):
    X=              2.0461    Y=             -1.3802    Z=             -0.6386  Tot=              2.5494
 Quadrupole moment (field-independent basis, Debye-Ang):
   XX=            -73.4127   YY=            -67.6278   ZZ=            -70.2148
   XY=              3.0890   XZ=              4.8969   YZ=             -2.4473

  Exact polarizability: 211.283 -26.076 110.038  17.478   0.999  55.907
 Approx polarizability: 161.131 -38.404 115.909  23.337  -4.169  54.912

                     1                      2                      3
                     A                      A                      A
 Frequencies --    20.9949                35.7711                99.4016
 Red. masses --    12.9737                19.5664                 3.0515
 Frc consts  --     0.0034                 0.0148                 0.0178
 IR Inten    --     1.5077                 1.0954                 1.4502

                     4                      5                      6
                     A                      A                      A
 Frequencies --   111.0198               160.3835               190.1681
 Red. masses --     9.0598                17.5648                 2.2066
 Frc consts  --     0.0658                 0.2662                 0.0470
 IR Inten    --     0.4457                 4.6918                 5.8023

                     7                      8                      9
                     A                      A                      A
 Frequencies --   198.1639               313.3585               332.0639
 Red. masses --     2.9935                 8.0869                 1.1131
 Frc consts  --     0.0693                 0.4679                 0.0723
 IR Inten    --    14.5239                 0.5109                38.6500

                    10                     11                     12
                     A                      A                      A
 Frequencies --   393.2922               459.6217               493.9867
 Red. masses --     1.0525                 1.3197                 3.6936
 Frc consts  --     0.0959                 0.1643                 0.5310
 IR Inten    --    11.7896                 5.6354                 2.0484

                    13                     14                     15
                     A                      A                      A
 Frequencies --   562.1081               602.1028               708.1158
 Red. masses --     1.5208                 3.0905                 3.6051
 Frc consts  --     0.2831                 0.6601                 1.0651
 IR Inten    --   110.2947                38.2631                 7.3174

                    16                     17                     18
                     A                      A                      A
 Frequencies --   773.1126               804.5098               926.7171
 Red. masses --     1.0215                 1.1608                 4.6530
 Frc consts  --     0.3597                 0.4427                 2.3544
 IR Inten    --   216.2119                30.9002               135.2343

                    19                     20                     21
                     A                      A                      A
 Frequencies --  1236.2022              1569.2448              1836.8301
 Red. masses --     1.3156                10.6048                 1.0140
 Frc consts  --     1.1845                15.3862                 2.0158
 IR Inten    --    34.8223               432.8021               283.7688

                    22                     23                     24
                     A                      A                      A
 Frequencies --  1843.9441              1858.3676              3189.4265
 Red. masses --     1.0178                 1.0165                 1.0901
 Frc consts  --     2.0390                 2.0684                 6.5336
 IR Inten    --   156.0026               282.9167                13.0712

 - Thermochemistry -
 -------------------
 Temperature   298.150 Kelvin.  Pressure   1.00000 Atm.
 Atom     1 has atomic number  6 and mass  12.00000

 Molecular mass:   361.75164 amu.
 Principal axes and moments of inertia in atomic units:
                           1         2         3
     Eigenvalues --   933.210569410.56673**********
           X            1.00000  -0.00045  -0.00224
           Y            0.00054   0.99928   0.03782
           Z            0.00222  -0.03782   0.99928
 This molecule is an asymmetric top.
 Rotational symmetry number  1.
 Warning -- assumption of classical behavior for rotation
           may cause significant error
 Rotational temperatures (Kelvin)      0.09281     0.00920     0.00846
 Rotational constants (GHZ):           1.93391     0.19178     0.17620
 Zero-point vibrational energy     111963.9 (Joules/Mol)
                                   26.76002 (Kcal/Mol)
 Warning -- explicit consideration of  14 degrees of freedom as
           vibrations may cause significant error
 Vibrational temperatures:     30.21    51.47   143.02   159.73   230.76
          (Kelvin)            273.61   285.11   450.85   477.77   565.86
                              661.29   710.74   808.75   866.29  1018.82
                             1112.34  1157.51  1333.34  1778.62  2257.79
                             2642.79  2653.02  2673.77  4588.87

 Zero-point correction=                           0.042645 (Hartree/Particle)
 Thermal correction to Energy=                    0.052724
 Thermal correction to Enthalpy=                  0.053669
 Thermal correction to Gibbs Free Energy=         0.001894
 Sum of electronic and zero-point Energies=           -197.369314
 Sum of electronic and thermal Energies=              -197.359234
 Sum of electronic and thermal Enthalpies=            -197.358290
 Sum of electronic and thermal Free Energies=         -197.410065

                     E (Thermal)             CV                S
                      KCal/Mol        Cal/Mol-Kelvin    Cal/Mol-Kelvin
 Total                   33.085             31.817            108.969
 Electronic               0.000              0.000              0.000
 Translational            0.889              2.981             43.551
 Rotational               0.889              2.981             32.864
 Vibrational             31.308             25.855             32.554
 Vibration     1          0.593              1.986              6.538
 Vibration     2          0.594              1.982              5.481
 Vibration     3          0.604              1.950              3.466
 Vibration     4          0.607              1.940              3.251
 Vibration     5          0.622              1.891              2.545
 Vibration     6          0.633              1.853              2.226
 Vibration     7          0.637              1.842              2.150
 Vibration     8          0.701              1.648              1.345
 Vibration     9          0.714              1.611              1.250
 Vibration    10          0.760              1.485              0.988
 Vibration    11          0.818              1.340              0.767
 Vibration    12          0.850              1.263              0.673
 Vibration    13          0.918              1.113              0.520
 Vibration    14          0.960              1.027              0.446

 Optimization completed.
    -- Stationary point found.

 1\1\GINC-MALLOS72\Freq\RMP2-FC\SDD\C2H4Br1F1Sn2\MARLIN\25-Oct-2024\0\\
 #N Geom=AllCheck Guess=TCheck SCRF=Check GenChk RMP2(FC)/SDD Freq\\Tit
 le Card Required\\0,1\C,2.3105368178,2.9212220347,-0.0512068101\C,1.92
 65586401,1.6265777121,0.0769360186\H,-1.0752091639,2.1772592723,-0.542
 8466789\H,-2.1137480345,-2.1656220092,-0.1754310371\H,0.5311009435,-2.
 715151658,0.3473374372\Sn,-0.1444244097,0.9713639413,0.2877967604\Sn,-
 0.4989574006,-1.6206230809,-0.5328508974\Br,4.1237115433,3.6452680034,
 -0.2019845522\F,1.3564691228,3.9872006489,-0.0842292101\H,2.7250821813

 Normal termination of Gaussian 09 at Fri Oct 25 10:52:55 2024.
