 Gaussian 09, Revision A.01,
 Gaussian 09:  EM64L-G09RevA.01  8-May-2009

 -----------------------------------------------
 # opt freq=noraman hf/lanl2dz geom=connectivity
 -----------------------------------------------

 -------------------
 Title Card Required
 -------------------
 Symbolic Z-matrix:
 Charge =  0 Multiplicity = 1

 SCF Done:  E(RHF) =  -196.763557954     A.U. after   15 cycles
 SCF Done:  E(RHF) =  -196.769254711     A.U. after   12 cycles
 SCF Done:  E(RHF) =  -196.775308043     A.U. after   16 cycles
 SCF Done:  E(RHF) =  -196.781700662     A.U. after   13 cycles
 SCF Done:  E(RHF) =  -196.786865388     A.U. after   14 cycles
 SCF Done:  E(RHF) =  -196.788692210     A.U. after   16 cycles
 SCF Done:  E(RHF) =  -196.789070712     A.U. after   13 cycles
 SCF Done:  E(RHF) =  -196.789311188     A.U. after   12 cycles
 SCF Done:  E(RHF) =  -196.789343591     A.U. after   12 cycles
 SCF Done:  E(RHF) =  -196.789351579     A.U. after   11 cycles
 SCF Done:  E(RHF) =  -196.789356535     A.U. after   12 cycles
 SCF Done:  E(RHF) =  -196.789359656     A.U. after   11 cycles
 SCF Done:  E(RHF) =  -196.789360741     A.U. after   11 cycles
 SCF Done:  E(RHF) =  -196.789361050     A.U. after   10 cycles
 Optimization completed.
    -- Stationary point found.

 1\1\GINC-MALLOS26\FOpt\RHF\LANL2DZ\C2H4Br1F1Sn2\MARLIN\24-Oct-2024\0\\
 # opt freq=noraman hf/lanl2dz geom=connectivity\\Title Card Required\\
 0,1\C,2.284698811,2.9527079831,-0.0931865715\C,1.8947159824,1.69943594
 47,0.0880330586\H,-1.0365787724,2.1853379723,-0.3982806798\H,-2.085436
 5846,-2.1690627197,-0.1241083607\H,0.4843188032,-2.8049873683,0.234337
 6677\Sn,-0.11885172,0.9911649574,0.4299282605\Sn,-0.5011149471,-1.6132
 478395,-0.520560787\F,1.3459878976,3.9686603849,-0.1064832285\H,3.2737
 752651,3.3366724649,-0.2324629065\Br,3.3484642148,0.3536100402,0.13105

 Normal termination of Gaussian 09 at Thu Oct 24 10:12:31 2024.

 ----------------------------------------------------------------
 #N Geom=AllCheck Guess=TCheck SCRF=Check GenChk RHF/LANL2DZ Freq
 ----------------------------------------------------------------

 Title Card Required
 -------------------
 Redundant internal coordinates taken from checkpoint file:
 5-lanl2dz.chk
 Charge =  0 Multiplicity = 1

                         Standard orientation:
 ---------------------------------------------------------------------
 Center     Atomic      Atomic             Coordinates (Angstroms)
 Number     Number       Type             X           Y           Z
 ---------------------------------------------------------------------
      1          6           0        2.951653   -0.683462    0.477560
      2          6           0        1.797986   -0.142189    0.114661
      3          1           0        0.102601   -2.571708    0.651502
      4          1           0       -3.736438   -0.432997   -0.256117
      5          1           0       -2.409747    1.844756   -0.690003
      6         50           0       -0.047668   -1.173255   -0.336400
      7         50           0       -2.299267    0.391360    0.224671
      8          9           0        3.047814   -2.054605    0.633230
      9          1           0        3.887521   -0.204009    0.675988
     10         35           0        1.816419    1.825832   -0.115636
 ---------------------------------------------------------------------

 SCF Done:  E(RHF) =  -196.789361050     A.U. after    1 cycles

 The electronic state is 1-A.
 Alpha  occ. eigenvalues --  -26.31296 -11.36923 -11.30702  -1.62758  -1.10740
 Alpha  occ. eigenvalues --   -0.98295  -0.82279  -0.72620  -0.69378  -0.69154
 Alpha  occ. eigenvalues --   -0.64512  -0.60593  -0.55261  -0.47869  -0.46574
 Alpha  occ. eigenvalues --   -0.44196  -0.40763  -0.40010  -0.37848  -0.28278
 Alpha virt. eigenvalues --   -0.03275   0.08150   0.08831   0.11769   0.12910
 Alpha virt. eigenvalues --    0.16413   0.18515   0.22536   0.27249   0.28261
 Alpha virt. eigenvalues --    0.32550   0.33527   0.34097   0.34996   0.35798

 Mulliken atomic charges:
              1
     1  C    0.244635
     2  C   -0.653462
     3  H   -0.172170
     4  H   -0.190725
     5  H   -0.178140
     6  Sn   0.668222
     7  Sn   0.389301
     8  F   -0.346524
     9  H    0.243890
    10  Br  -0.005027
 Sum of Mulliken atomic charges =   0.00000

 Dipole moment (field-independent basis, Debye):
    X=             -0.5664    Y=              0.1801    Z=              0.1817  Tot=              0.6215
 Quadrupole moment (field-independent basis, Debye-Ang):
   XX=            -64.0823   YY=            -73.4218   ZZ=            -69.2031
   XY=              1.6429   XZ=             -3.4042   YZ=              4.5254

  Exact polarizability: 174.702 -42.784 135.536 -25.870   9.455  63.414
 Approx polarizability: 133.394 -41.881 129.319 -25.476  11.722  58.210

                     1                      2                      3
                     A                      A                      A
 Frequencies --    18.7949                36.2016               105.2358
 Red. masses --    13.1797                26.0157                14.6311
 Frc consts  --     0.0027                 0.0201                 0.0955
 IR Inten    --     0.0768                 1.6601                 1.6094

                     4                      5                      6
                     A                      A                      A
 Frequencies --   127.6412               160.7889               187.8435
 Red. masses --    12.8302                13.1886                 1.1372
 Frc consts  --     0.1232                 0.2009                 0.0236
 IR Inten    --    11.4745                 9.7146                22.9407

                     7                      8                      9
                     A                      A                      A
 Frequencies --   264.8705               286.3707               334.5157
 Red. masses --     2.2069                 1.6759                11.1762
 Frc consts  --     0.0912                 0.0810                 0.7368
 IR Inten    --    83.5498                66.0431                 4.8256

                    10                     11                     12
                     A                      A                      A
 Frequencies --   364.8361               379.6808               491.9606
 Red. masses --     1.9600                 1.2085                 4.2562
 Frc consts  --     0.1537                 0.1026                 0.6069
 IR Inten    --    25.5743                10.4473                 6.6458

                    13                     14                     15
                     A                      A                      A
 Frequencies --   511.2354               652.3649               832.9310
 Red. masses --     1.2121                 1.1008                 3.6423
 Frc consts  --     0.1867                 0.2760                 1.4888
 IR Inten    --     1.8168               156.6635                33.8651

                    16                     17                     18
                     A                      A                      A
 Frequencies --   835.4718              1011.4810              1136.2059
 Red. masses --     1.2112                 1.4500                 8.6306
 Frc consts  --     0.4981                 0.8741                 6.5645
 IR Inten    --   270.6159                15.6624               132.6480

                    19                     20                     21
                     A                      A                      A
 Frequencies --  1424.8017              1792.5165              1910.5207
 Red. masses --     1.1377                 8.1600                 1.0161
 Frc consts  --     1.3608                15.4478                 2.1851
 IR Inten    --     0.4699               224.8425               291.8352

                    22                     23                     24
                     A                      A                      A
 Frequencies --  1921.7959              1931.8041              3456.7218
 Red. masses --     1.0163                 1.0165                 1.0988
 Frc consts  --     2.2114                 2.2349                 7.7360
 IR Inten    --    87.8740               358.1252                 0.4663

 - Thermochemistry -
 -------------------
 Temperature   298.150 Kelvin.  Pressure   1.00000 Atm.
 Atom     1 has atomic number  6 and mass  12.00000

 Molecular mass:   361.75164 amu.
 Principal axes and moments of inertia in atomic units:
                           1         2         3
     Eigenvalues --  2041.588084535.601856348.93194
           X            0.99978  -0.01707   0.01206
           Y            0.01727   0.99971  -0.01687
           Z           -0.01177   0.01707   0.99978
 This molecule is an asymmetric top.
 Rotational symmetry number  1.
 Warning -- assumption of classical behavior for rotation
           may cause significant error
 Rotational temperatures (Kelvin)      0.04242     0.01910     0.01364
 Rotational constants (GHZ):           0.88399     0.39791     0.28426
 Zero-point vibrational energy     120682.8 (Joules/Mol)
                                   28.84388 (Kcal/Mol)
 Warning -- explicit consideration of  13 degrees of freedom as
           vibrations may cause significant error
 Vibrational temperatures:     27.04    52.09   151.41   183.65   231.34
          (Kelvin)            270.26   381.09   412.02   481.29   524.92
                              546.28   707.82   735.55   938.61  1198.40
                             1202.06  1455.29  1634.74  2049.97  2579.03
                             2748.81  2765.03  2779.43  4973.45

 Zero-point correction=                           0.045966 (Hartree/Particle)
 Thermal correction to Energy=                    0.055919
 Thermal correction to Enthalpy=                  0.056863
 Thermal correction to Gibbs Free Energy=         0.005527
 Sum of electronic and zero-point Energies=           -196.743395
 Sum of electronic and thermal Energies=              -196.733442
 Sum of electronic and thermal Enthalpies=            -196.732498
 Sum of electronic and thermal Free Energies=         -196.783834

                     E (Thermal)             CV                S
                      KCal/Mol        Cal/Mol-Kelvin    Cal/Mol-Kelvin
 Total                   35.090             31.043            108.045
 Electronic               0.000              0.000              0.000
 Translational            0.889              2.981             43.551
 Rotational               0.889              2.981             32.442
 Vibrational             33.312             25.082             32.053
 Vibration     1          0.593              1.986              6.758
 Vibration     2          0.594              1.982              5.457
 Vibration     3          0.605              1.945              3.355
 Vibration     4          0.611              1.926              2.981
 Vibration     5          0.622              1.890              2.540
 Vibration     6          0.633              1.857              2.249
 Vibration     7          0.671              1.737              1.629
 Vibration     8          0.684              1.699              1.495
 Vibration     9          0.716              1.607              1.238
 Vibration    10          0.738              1.545              1.101
 Vibration    11          0.750              1.513              1.040
 Vibration    12          0.848              1.268              0.679
 Vibration    13          0.866              1.225              0.631

 1\1\GINC-MALLOS26\Freq\RHF\LANL2DZ\C2H4Br1F1Sn2\MARLIN\24-Oct-2024\0\\
 #N Geom=AllCheck Guess=TCheck SCRF=Check GenChk RHF/LANL2DZ Freq\\Titl
 e Card Required\\0,1\C,2.284698811,2.9527079831,-0.0931865715\C,1.8947
 159824,1.6994359447,0.0880330586\H,-1.0365787724,2.1853379723,-0.39828
 06798\H,-2.0854365846,-2.1690627197,-0.1241083607\H,0.4843188032,-2.80
 49873683,0.2343376677\Sn,-0.11885172,0.9911649574,0.4299282605\Sn,-0.5
 011149471,-1.6132478395,-0.520560787\F,1.3459878976,3.9686603849,-0.10
 64832285\H,3.2737752651,3.3366724649,-0.2324629065\Br,3.3484642148,0.3

 Normal termination of Gaussian 09 at Thu Oct 24 10:12:34 2024.
