 Gaussian 09, Revision A.01,
 Gaussian 09:  EM64L-G09RevA.01  8-May-2009

 --------------------------------------------
 # opt freq=noraman mp2/lanl2dz geom=allcheck
 --------------------------------------------

 Title Card Required
 -------------------
 Redundant internal coordinates taken from checkpoint file:
 5-mp2.chk
 Charge =  0 Multiplicity = 1

 SCF Done:  E(RHF) =  -196.789361050     A.U. after   15 cycles
 E2 =    -0.4044858199D+00 EUMP2 =    -0.19719384686999D+03
 SCF Done:  E(RHF) =  -196.784878277     A.U. after   13 cycles
 E2 =    -0.4133887839D+00 EUMP2 =    -0.19719826706086D+03
 SCF Done:  E(RHF) =  -196.784515821     A.U. after   12 cycles
 E2 =    -0.4140193283D+00 EUMP2 =    -0.19719853514956D+03
 SCF Done:  E(RHF) =  -196.784195463     A.U. after   12 cycles
 E2 =    -0.4143953774D+00 EUMP2 =    -0.19719859084015D+03
 SCF Done:  E(RHF) =  -196.783824875     A.U. after   12 cycles
 E2 =    -0.4147294711D+00 EUMP2 =    -0.19719855434557D+03
 SCF Done:  E(RHF) =  -196.784322932     A.U. after   12 cycles
 E2 =    -0.4143067287D+00 EUMP2 =    -0.19719862966115D+03
 SCF Done:  E(RHF) =  -196.784356606     A.U. after   11 cycles
 E2 =    -0.4142783175D+00 EUMP2 =    -0.19719863492389D+03
 SCF Done:  E(RHF) =  -196.784338594     A.U. after   11 cycles
 E2 =    -0.4142980783D+00 EUMP2 =    -0.19719863667220D+03
 SCF Done:  E(RHF) =  -196.784318043     A.U. after    9 cycles
 E2 =    -0.4143188328D+00 EUMP2 =    -0.19719863687624D+03
 SCF Done:  E(RHF) =  -196.784314473     A.U. after    9 cycles
 E2 =    -0.4143224442D+00 EUMP2 =    -0.19719863691682D+03
 Optimization completed.
    -- Stationary point found.
 Normal termination of Gaussian 09 at Thu Oct 24 10:20:29 2024.

 ---------------------------------------------------------------------
 #N Geom=AllCheck Guess=TCheck SCRF=Check GenChk RMP2(FC)/LANL2DZ Freq
 ---------------------------------------------------------------------

 Title Card Required
 -------------------
 Redundant internal coordinates taken from checkpoint file:
 5-mp2.chk
 Charge =  0 Multiplicity = 1

                         Standard orientation:
 ---------------------------------------------------------------------
 Center     Atomic      Atomic             Coordinates (Angstroms)
 Number     Number       Type             X           Y           Z
 ---------------------------------------------------------------------
      1          6           0        2.984506   -0.726053    0.331141
      2          6           0        1.785446   -0.128631    0.079885
      3          1           0        0.040161   -2.561607    0.797233
      4          1           0       -3.714874   -0.466667   -0.242045
      5          1           0       -2.302852    1.807187   -0.843034
      6         50           0       -0.077717   -1.184261   -0.244886
      7         50           0       -2.268550    0.401354    0.168838
      8          9           0        3.038352   -2.161270    0.411650
      9          1           0        3.972651   -0.289083    0.485952
     10         35           0        1.810096    1.863860   -0.073335
 ---------------------------------------------------------------------

 SCF Done:  E(RHF) =  -196.784314473     A.U. after    1 cycles
 E2 =    -0.4143224446D+00 EUMP2 =    -0.19719863691718D+03
 E2 =    -0.4143224446D+00 EUMP2 =    -0.19719863691718D+03

 The electronic state is 1-A.
 Alpha  occ. eigenvalues --  -26.30928 -11.37875 -11.31967  -1.60390  -1.09721
 Alpha  occ. eigenvalues --   -0.98183  -0.81287  -0.70669  -0.69048  -0.67918
 Alpha  occ. eigenvalues --   -0.64266  -0.60439  -0.55313  -0.47738  -0.46945
 Alpha  occ. eigenvalues --   -0.44389  -0.41219  -0.40208  -0.37995  -0.28080
 Alpha virt. eigenvalues --   -0.03104   0.08105   0.09052   0.10601   0.12097
 Alpha virt. eigenvalues --    0.16052   0.18417   0.22325   0.26348   0.26994
 Alpha virt. eigenvalues --    0.32307   0.32747   0.33954   0.35209   0.35808

 Mulliken atomic charges:
              1
     1  C    0.239777
     2  C   -0.635466
     3  H   -0.165079
     4  H   -0.186231
     5  H   -0.174015
     6  Sn   0.673796
     7  Sn   0.371503
     8  F   -0.374562
     9  H    0.246510
    10  Br   0.003766
 Sum of Mulliken atomic charges =   0.00000

 Dipole moment (field-independent basis, Debye):
    X=             -0.5516    Y=              0.4345    Z=              0.1877  Tot=              0.7268
 Quadrupole moment (field-independent basis, Debye-Ang):
   XX=            -63.9085   YY=            -73.6836   ZZ=            -69.9922
   XY=              2.2060   XZ=             -2.9305   YZ=              3.6922

  Exact polarizability: 164.200 -34.971 133.200 -16.093   3.273  54.066
 Approx polarizability: 136.974 -45.401 136.599 -24.943  10.399  53.468

                     1                      2                      3
                     A                      A                      A
 Frequencies --    19.8132                39.6409               104.2964
 Red. masses --    12.3172                26.5550                16.0384
 Frc consts  --     0.0028                 0.0246                 0.1028
 IR Inten    --     0.0502                 0.1905                 0.5851

                     4                      5                      6
                     A                      A                      A
 Frequencies --   137.1483               178.0477               189.0753
 Red. masses --    20.8755                 4.0194                 1.4391
 Frc consts  --     0.2313                 0.0751                 0.0303
 IR Inten    --     9.1634                 2.8200                 6.2636

                     7                      8                      9
                     A                      A                      A
 Frequencies --   244.1434               311.8501               319.0684
 Red. masses --     6.0640                 6.4277                 1.7120
 Frc consts  --     0.2130                 0.3683                 0.1027
 IR Inten    --     3.2505                 2.9476                38.6126

                    10                     11                     12
                     A                      A                      A
 Frequencies --   342.9369               391.7808               459.2806
 Red. masses --     1.4974                 1.1037                 3.8709
 Frc consts  --     0.1038                 0.0998                 0.4811
 IR Inten    --    19.4230                 9.8591                 4.8977

                    13                     14                     15
                     A                      A                      A
 Frequencies --   473.9215               607.0577               774.8512
 Red. masses --     1.2103                 1.0934                 1.1034
 Frc consts  --     0.1602                 0.2374                 0.3903
 IR Inten    --     1.4186               112.6492               176.6508

                    16                     17                     18
                     A                      A                      A
 Frequencies --   782.7021               822.6051               991.2033
 Red. masses --     5.5858                 1.3988                 8.4798
 Frc consts  --     2.0162                 0.5577                 4.9086
 IR Inten    --    55.4526                27.1724                80.9430

                    19                     20                     21
                     A                      A                      A
 Frequencies --  1294.9640              1565.5237              1847.0475
 Red. masses --     1.1452                 8.0583                 1.0144
 Frc consts  --     1.1315                11.6363                 2.0390
 IR Inten    --     2.5552               112.7632               218.9127

                    22                     23                     24
                     A                      A                      A
 Frequencies --  1856.5537              1863.9644              3243.2683
 Red. masses --     1.0169                 1.0169                 1.0980
 Frc consts  --     2.0652                 2.0816                 6.8048
 IR Inten    --     9.2811               298.3900                 2.4047

 - Thermochemistry -
 -------------------
 Temperature   298.150 Kelvin.  Pressure   1.00000 Atm.
 Atom     1 has atomic number  6 and mass  12.00000

 Molecular mass:   361.75164 amu.
 Principal axes and moments of inertia in atomic units:
                           1         2         3
     Eigenvalues --  2073.851974420.146076373.37252
           X            0.99977  -0.01899   0.00956
           Y            0.01913   0.99971  -0.01461
           Z           -0.00928   0.01479   0.99985
 This molecule is an asymmetric top.
 Rotational symmetry number  1.
 Warning -- assumption of classical behavior for rotation
           may cause significant error
 Rotational temperatures (Kelvin)      0.04176     0.01960     0.01359
 Rotational constants (GHZ):           0.87024     0.40830     0.28317
 Zero-point vibrational energy     112812.3 (Joules/Mol)
                                   26.96279 (Kcal/Mol)
 Warning -- explicit consideration of  14 degrees of freedom as
           vibrations may cause significant error
 Vibrational temperatures:     28.51    57.03   150.06   197.33   256.17
          (Kelvin)            272.04   351.27   448.68   459.07   493.41
                              563.68   660.80   681.87   873.42  1114.84
                             1126.13  1183.54  1426.12  1863.16  2252.44
                             2657.49  2671.16  2681.83  4666.33

 Zero-point correction=                           0.042968 (Hartree/Particle)
 Thermal correction to Energy=                    0.053062
 Thermal correction to Enthalpy=                  0.054006
 Thermal correction to Gibbs Free Energy=         0.002662
 Sum of electronic and zero-point Energies=           -197.155669
 Sum of electronic and thermal Energies=              -197.145575
 Sum of electronic and thermal Enthalpies=            -197.144631
 Sum of electronic and thermal Free Energies=         -197.195975

                     E (Thermal)             CV                S
                      KCal/Mol        Cal/Mol-Kelvin    Cal/Mol-Kelvin
 Total                   33.297             31.964            108.063
 Electronic               0.000              0.000              0.000
 Translational            0.889              2.981             43.551
 Rotational               0.889              2.981             32.435
 Vibrational             31.519             26.002             32.077
 Vibration     1          0.593              1.986              6.653
 Vibration     2          0.594              1.981              5.277
 Vibration     3          0.605              1.946              3.372
 Vibration     4          0.614              1.916              2.843
 Vibration     5          0.628              1.869              2.349
 Vibration     6          0.633              1.855              2.237
 Vibration     7          0.659              1.772              1.772
 Vibration     8          0.700              1.651              1.352
 Vibration     9          0.705              1.637              1.315
 Vibration    10          0.722              1.590              1.198
 Vibration    11          0.759              1.488              0.993
 Vibration    12          0.817              1.340              0.768
 Vibration    13          0.831              1.308              0.727
 Vibration    14          0.966              1.017              0.438

 Optimization completed.
    -- Stationary point found.
 Normal termination of Gaussian 09 at Thu Oct 24 10:20:44 2024.
