 Gaussian 09, Revision A.01,
 Gaussian 09:  EM64L-G09RevA.01  8-May-2009

 ---------------------------------------
 # opt freq=noraman hf/sdd geom=allcheck
 ---------------------------------------

 Title Card Required
 -------------------
 Redundant internal coordinates taken from checkpoint file:
 5-sdd.chk
 Charge =  0 Multiplicity = 1

 SCF Done:  E(RHF) =  -197.004427363     A.U. after   15 cycles
 SCF Done:  E(RHF) =  -197.004631465     A.U. after   12 cycles
 SCF Done:  E(RHF) =  -197.004654147     A.U. after   11 cycles
 SCF Done:  E(RHF) =  -197.004655332     A.U. after   11 cycles
 SCF Done:  E(RHF) =  -197.004661333     A.U. after   11 cycles
 SCF Done:  E(RHF) =  -197.004662875     A.U. after   11 cycles
 SCF Done:  E(RHF) =  -197.004663632     A.U. after   10 cycles
 Optimization completed.
    -- Stationary point found.
 Normal termination of Gaussian 09 at Thu Oct 24 12:29:19 2024.

 ------------------------------------------------------------
 #N Geom=AllCheck Guess=TCheck SCRF=Check GenChk RHF/SDD Freq
 ------------------------------------------------------------

 Title Card Required
 -------------------
 Redundant internal coordinates taken from checkpoint file:
 5-sdd.chk
 Charge =  0 Multiplicity = 1

                         Standard orientation:
 ---------------------------------------------------------------------
 Center     Atomic      Atomic             Coordinates (Angstroms)
 Number     Number       Type             X           Y           Z
 ---------------------------------------------------------------------
      1          6           0        2.959349   -0.679711    0.458962
      2          6           0        1.804176   -0.132094    0.112035
      3          1           0        0.088994   -2.561052    0.703537
      4          1           0       -3.755018   -0.403600   -0.231779
      5          1           0       -2.397582    1.861129   -0.701120
      6         50           0       -0.062272   -1.187913   -0.324342
      7         50           0       -2.294404    0.405223    0.217546
      8          9           0        3.049362   -2.052245    0.610591
      9          1           0        3.899514   -0.204812    0.647160
     10         35           0        1.827785    1.822395   -0.114266
 ---------------------------------------------------------------------

 SCF Done:  E(RHF) =  -197.004663632     A.U. after    1 cycles

 The electronic state is 1-A.
 Alpha  occ. eigenvalues --  -26.31171 -11.36660 -11.31190  -1.62511  -1.11775
 Alpha  occ. eigenvalues --   -1.00969  -0.82180  -0.72519  -0.69600  -0.69156
 Alpha  occ. eigenvalues --   -0.64790  -0.60717  -0.55536  -0.47888  -0.46634
 Alpha  occ. eigenvalues --   -0.44142  -0.40752  -0.39875  -0.37795  -0.28110
 Alpha virt. eigenvalues --   -0.03055   0.08002   0.08858   0.09554   0.10554
 Alpha virt. eigenvalues --    0.11166   0.13482   0.14626   0.16971   0.20064
 Alpha virt. eigenvalues --    0.24290   0.27745   0.29666   0.42103   0.44334

 Mulliken atomic charges:
              1
     1  C    0.217020
     2  C   -0.633553
     3  H   -0.161328
     4  H   -0.181416
     5  H   -0.167649
     6  Sn   0.615344
     7  Sn   0.382286
     8  F   -0.349562
     9  H    0.238783
    10  Br   0.040074
 Sum of Mulliken atomic charges =   0.00000

 Dipole moment (field-independent basis, Debye):
    X=             -0.8954    Y=              0.2193    Z=              0.1723  Tot=              0.9378
 Quadrupole moment (field-independent basis, Debye-Ang):
   XX=            -63.8126   YY=            -72.7252   ZZ=            -69.0869
   XY=              1.6208   XZ=             -3.2413   YZ=              4.2265

  Exact polarizability: 171.904 -40.602 135.791 -25.725   8.768  64.056
 Approx polarizability: 133.853 -42.215 131.102 -26.014  11.868  59.253

                     1                      2                      3
                     A                      A                      A
 Frequencies --    18.1760                37.4515               105.8484
 Red. masses --    13.1673                25.8253                15.7160
 Frc consts  --     0.0026                 0.0213                 0.1037
 IR Inten    --     0.0560                 1.5714                 1.2112

                     4                      5                      6
                     A                      A                      A
 Frequencies --   126.3459               160.7908               189.2880
 Red. masses --    13.0622                13.6588                 1.1321
 Frc consts  --     0.1229                 0.2081                 0.0239
 IR Inten    --    11.4917                10.3044                21.2055

                     7                      8                      9
                     A                      A                      A
 Frequencies --   269.6156               291.4551               337.8016
 Red. masses --     3.1333                 1.3801                10.9531
 Frc consts  --     0.1342                 0.0691                 0.7364
 IR Inten    --    56.4324                92.1331                 5.6770

                    10                     11                     12
                     A                      A                      A
 Frequencies --   363.9075               381.1502               489.0308
 Red. masses --     1.9624                 1.1983                 4.8424
 Frc consts  --     0.1531                 0.1026                 0.6823
 IR Inten    --    27.6490                 9.8784                 7.1112

                    13                     14                     15
                     A                      A                      A
 Frequencies --   512.4287               647.3120               831.8260
 Red. masses --     1.1698                 1.0921                 1.0433
 Frc consts  --     0.1810                 0.2696                 0.4253
 IR Inten    --     1.6888               150.2205               226.2283

                    16                     17                     18
                     A                      A                      A
 Frequencies --   843.8797              1004.2324              1134.1512
 Red. masses --     7.4633                 1.4484                 8.6575
 Frc consts  --     3.1314                 0.8606                 6.5612
 IR Inten    --    79.3351                17.2018               131.3367

                    19                     20                     21
                     A                      A                      A
 Frequencies --  1423.6587              1793.9968              1907.4421
 Red. masses --     1.1374                 8.1255                 1.0164
 Frc consts  --     1.3582                15.4079                 2.1789
 IR Inten    --     0.5806               209.3643               333.2286

                    22                     23                     24
                     A                      A                      A
 Frequencies --  1918.9291              1927.6675              3455.1508
 Red. masses --     1.0160                 1.0165                 1.0987
 Frc consts  --     2.2042                 2.2255                 7.7282
 IR Inten    --   129.8065               436.6407                 0.6446

 - Thermochemistry -
 -------------------
 Temperature   298.150 Kelvin.  Pressure   1.00000 Atm.
 Atom     1 has atomic number  6 and mass  12.00000

 Molecular mass:   361.75164 amu.
 Principal axes and moments of inertia in atomic units:
                           1         2         3
     Eigenvalues --  2048.938824535.360906370.59911
           X            0.99979  -0.01714   0.01160
           Y            0.01733   0.99971  -0.01681
           Z           -0.01131   0.01701   0.99979
 This molecule is an asymmetric top.
 Rotational symmetry number  1.
 Warning -- assumption of classical behavior for rotation
           may cause significant error
 Rotational temperatures (Kelvin)      0.04227     0.01910     0.01360
 Rotational constants (GHZ):           0.88082     0.39793     0.28329
 Zero-point vibrational energy     120652.6 (Joules/Mol)
                                   28.83666 (Kcal/Mol)
 Warning -- explicit consideration of  13 degrees of freedom as
           vibrations may cause significant error
 Vibrational temperatures:     26.15    53.88   152.29   181.78   231.34
          (Kelvin)            272.34   387.92   419.34   486.02   523.58
                              548.39   703.61   737.27   931.34  1196.81
                             1214.15  1444.86  1631.79  2048.32  2581.16
                             2744.38  2760.91  2773.48  4971.19

 Zero-point correction=                           0.045954 (Hartree/Particle)
 Thermal correction to Energy=                    0.055891
 Thermal correction to Enthalpy=                  0.056835
 Thermal correction to Gibbs Free Energy=         0.005532
 Sum of electronic and zero-point Energies=           -196.958709
 Sum of electronic and thermal Energies=              -196.948773
 Sum of electronic and thermal Enthalpies=            -196.947829
 Sum of electronic and thermal Free Energies=         -196.999132

                     E (Thermal)             CV                S
                      KCal/Mol        Cal/Mol-Kelvin    Cal/Mol-Kelvin
 Total                   35.072             31.029            107.977
 Electronic               0.000              0.000              0.000
 Translational            0.889              2.981             43.551
 Rotational               0.889              2.981             32.448
 Vibrational             33.295             25.068             31.978
 Vibration     1          0.593              1.986              6.824
 Vibration     2          0.594              1.982              5.390
 Vibration     3          0.605              1.945              3.344
 Vibration     4          0.611              1.927              3.001
 Vibration     5          0.622              1.890              2.540
 Vibration     6          0.633              1.855              2.235
 Vibration     7          0.674              1.729              1.599
 Vibration     8          0.687              1.690              1.466
 Vibration     9          0.718              1.600              1.223
 Vibration    10          0.737              1.547              1.105
 Vibration    11          0.751              1.510              1.035
 Vibration    12          0.845              1.274              0.686
 Vibration    13          0.868              1.222              0.628

 Normal termination of Gaussian 09 at Thu Oct 24 12:29:22 2024.
