 Gaussian 09, Revision A.01,
 Gaussian 09:  EM64L-G09RevA.01  8-May-2009

 ----------------------------------------
 # opt freq=noraman mp2/sdd geom=allcheck
 ----------------------------------------

 Title Card Required
 -------------------
 Redundant internal coordinates taken from checkpoint file:
 5-sddmp2.chk
 Charge =  0 Multiplicity = 1

 SCF Done:  E(RHF) =  -197.004663632     A.U. after   15 cycles
 E2 =    -0.4031240338D+00 EUMP2 =    -0.19740778766580D+03
 SCF Done:  E(RHF) =  -197.000136425     A.U. after   13 cycles
 E2 =    -0.4120305859D+00 EUMP2 =    -0.19741216701075D+03
 SCF Done:  E(RHF) =  -196.999858037     A.U. after   12 cycles
 E2 =    -0.4125507317D+00 EUMP2 =    -0.19741240876869D+03
 SCF Done:  E(RHF) =  -196.999599394     A.U. after   12 cycles
 E2 =    -0.4128679485D+00 EUMP2 =    -0.19741246734272D+03
 SCF Done:  E(RHF) =  -196.999348866     A.U. after   12 cycles
 E2 =    -0.4130814730D+00 EUMP2 =    -0.19741243033906D+03
 SCF Done:  E(RHF) =  -196.999660901     A.U. after   12 cycles
 E2 =    -0.4128270868D+00 EUMP2 =    -0.19741248798762D+03
 SCF Done:  E(RHF) =  -196.999687550     A.U. after   11 cycles
 E2 =    -0.4128040594D+00 EUMP2 =    -0.19741249160890D+03
 SCF Done:  E(RHF) =  -196.999677837     A.U. after   10 cycles
 E2 =    -0.4128149316D+00 EUMP2 =    -0.19741249276897D+03
 SCF Done:  E(RHF) =  -196.999664223     A.U. after    9 cycles
 E2 =    -0.4128286909D+00 EUMP2 =    -0.19741249291409D+03
 SCF Done:  E(RHF) =  -196.999662358     A.U. after    9 cycles
 E2 =    -0.4128305896D+00 EUMP2 =    -0.19741249294760D+03
 Optimization completed.
    -- Stationary point found.

 1\1\GINC-MALLOS71\FOpt\RMP2-FC\SDD\C2H4Br1F1Sn2\MARLIN\25-Oct-2024\0\\
 # opt freq=noraman mp2/sdd geom=allcheck\\Title Card Required\\0,1\C,2
 .3136402943,2.9551131571,-0.0370392708\C,1.914462734,1.6538236567,0.03
 23476673\H,-1.0834548104,2.1576024266,-0.5565698734\H,-2.1206139357,-2
 .1564165973,-0.0941406\H,0.5300002971,-2.7459748374,0.3566393816\Sn,-0
 .157125695,0.983975649,0.3268773399\Sn,-0.5060400971,-1.6175539218,-0.
 4641851815\F,1.3174789912,3.9881691578,0.0632348222\H,3.3103295028,3.3
 828513635,-0.1580237451\Br,3.3713016688,0.2987017656,-0.0608674302\\Ve

 Normal termination of Gaussian 09 at Fri Oct 25 12:52:35 2024.

 -----------------------------------------------------------------
 #N Geom=AllCheck Guess=TCheck SCRF=Check GenChk RMP2(FC)/SDD Freq
 -----------------------------------------------------------------

 Title Card Required
 -------------------
 Redundant internal coordinates taken from checkpoint file:
 5-sddmp2.chk
 Charge =  0 Multiplicity = 1

                         Standard orientation:
 ---------------------------------------------------------------------
 Center     Atomic      Atomic             Coordinates (Angstroms)
 Number     Number       Type             X           Y           Z
 ---------------------------------------------------------------------
      1          6           0        2.999311   -0.713036    0.326215
      2          6           0        1.794990   -0.124724    0.079211
      3          1           0        0.035832   -2.558637    0.833903
      4          1           0       -3.739462   -0.430704   -0.224095
      5          1           0       -2.293463    1.828060   -0.843457
      6         50           0       -0.092614   -1.201914   -0.242559
      7         50           0       -2.268023    0.415020    0.168045
      8          9           0        3.061165   -2.147765    0.411806
      9          1           0        3.984940   -0.269114    0.476063
     10         35           0        1.820792    1.860902   -0.075872
 ---------------------------------------------------------------------

 SCF Done:  E(RHF) =  -196.999662358     A.U. after    1 cycles
 E2 =    -0.4128305885D+00 EUMP2 =    -0.19741249294651D+03
 E2 =    -0.4128305885D+00 EUMP2 =    -0.19741249294651D+03

 The electronic state is 1-A.
 Alpha  occ. eigenvalues --  -26.30746 -11.37591 -11.32467  -1.60102  -1.10796
 Alpha  occ. eigenvalues --   -1.00595  -0.81151  -0.70517  -0.69532  -0.67671
 Alpha  occ. eigenvalues --   -0.64394  -0.60556  -0.55438  -0.47636  -0.46857
 Alpha  occ. eigenvalues --   -0.44301  -0.41199  -0.40072  -0.37895  -0.28007
 Alpha virt. eigenvalues --   -0.02973   0.07498   0.08835   0.09488   0.10477
 Alpha virt. eigenvalues --    0.11064   0.12703   0.13779   0.16625   0.19715
 Alpha virt. eigenvalues --    0.24032   0.27308   0.27537   0.42122   0.43973

 Mulliken atomic charges:
              1
     1  C    0.212653
     2  C   -0.618794
     3  H   -0.155626
     4  H   -0.177507
     5  H   -0.163736
     6  Sn   0.625000
     7  Sn   0.368134
     8  F   -0.376662
     9  H    0.241483
    10  Br   0.045056
 Sum of Mulliken atomic charges =   0.00000

 Dipole moment (field-independent basis, Debye):
    X=             -0.9487    Y=              0.4438    Z=              0.1787  Tot=              1.0625
 Quadrupole moment (field-independent basis, Debye-Ang):
   XX=            -63.8189   YY=            -73.0726   ZZ=            -69.7808
   XY=              2.2889   XZ=             -2.8491   YZ=              3.5340

  Exact polarizability: 162.422 -32.364 134.436 -16.622   2.961  56.022
 Approx polarizability: 137.048 -45.253 138.362 -25.327  10.695  55.318

                     1                      2                      3
                     A                      A                      A
 Frequencies --    19.3202                39.7981               103.5200
 Red. masses --    12.4934                26.3713                16.4037
 Frc consts  --     0.0027                 0.0246                 0.1036
 IR Inten    --     0.0593                 0.2333                 0.5669

                     4                      5                      6
                     A                      A                      A
 Frequencies --   136.6392               176.1560               187.1501
 Red. masses --    20.9921                 4.3440                 1.4178
 Frc consts  --     0.2309                 0.0794                 0.0293
 IR Inten    --     9.6723                 2.7470                 5.9383

                     7                      8                      9
                     A                      A                      A
 Frequencies --   244.1146               311.1867               315.9768
 Red. masses --     6.0046                 3.2911                 3.0164
 Frc consts  --     0.2108                 0.1878                 0.1774
 IR Inten    --     2.9284                12.2181                26.0162

                    10                     11                     12
                     A                      A                      A
 Frequencies --   340.1647               390.0833               455.3277
 Red. masses --     1.2970                 1.0989                 4.6913
 Frc consts  --     0.0884                 0.0985                 0.5730
 IR Inten    --    23.8188                 8.7722                 5.1543

                    13                     14                     15
                     A                      A                      A
 Frequencies --   475.9132               598.5051               773.7423
 Red. masses --     1.1416                 1.0877                 1.1404
 Frc consts  --     0.1523                 0.2296                 0.4023
 IR Inten    --     1.6285               111.2503               160.0867

                    16                     17                     18
                     A                      A                      A
 Frequencies --   782.8086               808.6228               989.1192
 Red. masses --     4.8928                 1.3988                 8.6282
 Frc consts  --     1.7665                 0.5389                 4.9735
 IR Inten    --    69.0649                27.9977                79.7610

                    19                     20                     21
                     A                      A                      A
 Frequencies --  1293.9721              1564.8920              1840.6578
 Red. masses --     1.1429                 7.9640                 1.0146
 Frc consts  --     1.1275                11.4909                 2.0253
 IR Inten    --     2.7279               112.5380               295.4755

                    22                     23                     24
                     A                      A                      A
 Frequencies --  1847.4547              1855.5139              3241.6778
 Red. masses --     1.0167                 1.0170                 1.0981
 Frc consts  --     2.0445                 2.0630                 6.7988
 IR Inten    --     9.0303               378.9847                 2.8638

 - Thermochemistry -
 -------------------
 Temperature   298.150 Kelvin.  Pressure   1.00000 Atm.
 Atom     1 has atomic number  6 and mass  12.00000

 Molecular mass:   361.75164 amu.
 Principal axes and moments of inertia in atomic units:
                           1         2         3
     Eigenvalues --  2088.008864446.169006414.48053
           X            0.99978  -0.01886   0.00937
           Y            0.01899   0.99971  -0.01475
           Z           -0.00909   0.01492   0.99985
 This molecule is an asymmetric top.
 Rotational symmetry number  1.
 Warning -- assumption of classical behavior for rotation
           may cause significant error
 Rotational temperatures (Kelvin)      0.04148     0.01948     0.01350
 Rotational constants (GHZ):           0.86434     0.40591     0.28135
 Zero-point vibrational energy     112403.0 (Joules/Mol)
                                   26.86497 (Kcal/Mol)
 Warning -- explicit consideration of  14 degrees of freedom as
           vibrations may cause significant error
 Vibrational temperatures:     27.80    57.26   148.94   196.59   253.45
          (Kelvin)            269.27   351.23   447.73   454.62   489.42
                              561.24   655.11   684.73   861.11  1113.24
                             1126.29  1163.43  1423.12  1861.73  2251.53
                             2648.29  2658.07  2669.67  4664.05

 Zero-point correction=                           0.042812 (Hartree/Particle)
 Thermal correction to Energy=                    0.052935
 Thermal correction to Enthalpy=                  0.053880
 Thermal correction to Gibbs Free Energy=         0.002443
 Sum of electronic and zero-point Energies=           -197.369681
 Sum of electronic and thermal Energies=              -197.359557
 Sum of electronic and thermal Enthalpies=            -197.358613
 Sum of electronic and thermal Free Energies=         -197.410050

                     E (Thermal)             CV                S
                      KCal/Mol        Cal/Mol-Kelvin    Cal/Mol-Kelvin
 Total                   33.217             32.038            108.258
 Electronic               0.000              0.000              0.000
 Translational            0.889              2.981             43.551
 Rotational               0.889              2.981             32.454
 Vibrational             31.440             26.076             32.253
 Vibration     1          0.593              1.986              6.703
 Vibration     2          0.594              1.981              5.269
 Vibration     3          0.605              1.946              3.387
 Vibration     4          0.614              1.917              2.850
 Vibration     5          0.628              1.872              2.369
 Vibration     6          0.632              1.857              2.256
 Vibration     7          0.659              1.773              1.773
 Vibration     8          0.700              1.652              1.356
 Vibration     9          0.703              1.643              1.331
 Vibration    10          0.720              1.595              1.211
 Vibration    11          0.758              1.491              1.000
 Vibration    12          0.814              1.349              0.780
 Vibration    13          0.833              1.303              0.721
 Vibration    14          0.956              1.035              0.452

 Optimization completed.
    -- Stationary point found.

 1\1\GINC-MALLOS71\Freq\RMP2-FC\SDD\C2H4Br1F1Sn2\MARLIN\25-Oct-2024\0\\
 #N Geom=AllCheck Guess=TCheck SCRF=Check GenChk RMP2(FC)/SDD Freq\\Tit
 le Card Required\\0,1\C,2.3136402943,2.9551131571,-0.0370392708\C,1.91
 4462734,1.6538236567,0.0323476673\H,-1.0834548104,2.1576024266,-0.5565
 698734\H,-2.1206139357,-2.1564165973,-0.0941406\H,0.5300002971,-2.7459
 748374,0.3566393816\Sn,-0.157125695,0.983975649,0.3268773399\Sn,-0.506
 0400971,-1.6175539218,-0.4641851815\F,1.3174789912,3.9881691578,0.0632
 348222\H,3.3103295028,3.3828513635,-0.1580237451\Br,3.3713016688,0.298

 Normal termination of Gaussian 09 at Fri Oct 25 12:52:56 2024.
