 Gaussian 09, Revision A.01,
 Gaussian 09:  EM64L-G09RevA.01  8-May-2009

 -----------------------------------------------
 # opt freq=noraman hf/lanl2dz geom=connectivity
 -----------------------------------------------

 -------------------
 Title Card Required
 -------------------
 Symbolic Z-matrix:
 Charge =  0 Multiplicity = 1

 SCF Done:  E(RHF) =  -196.761675357     A.U. after   15 cycles
 SCF Done:  E(RHF) =  -196.767444839     A.U. after   13 cycles
 SCF Done:  E(RHF) =  -196.773610209     A.U. after   16 cycles
 SCF Done:  E(RHF) =  -196.780025003     A.U. after   13 cycles
 SCF Done:  E(RHF) =  -196.786012015     A.U. after   16 cycles
 SCF Done:  E(RHF) =  -196.788197781     A.U. after   13 cycles
 SCF Done:  E(RHF) =  -196.789226618     A.U. after   14 cycles
 SCF Done:  E(RHF) =  -196.789386079     A.U. after   12 cycles
 SCF Done:  E(RHF) =  -196.789419722     A.U. after   16 cycles
 SCF Done:  E(RHF) =  -196.789434020     A.U. after   12 cycles
 SCF Done:  E(RHF) =  -196.789444534     A.U. after   11 cycles
 SCF Done:  E(RHF) =  -196.789452628     A.U. after   11 cycles
 SCF Done:  E(RHF) =  -196.789455032     A.U. after   10 cycles
 SCF Done:  E(RHF) =  -196.789456042     A.U. after   10 cycles
 SCF Done:  E(RHF) =  -196.789456432     A.U. after   10 cycles
 Optimization completed.
    -- Stationary point found.

 1\1\GINC-MALLOS28\FOpt\RHF\LANL2DZ\C2H4Br1F1Sn2\MARLIN\24-Oct-2024\0\\
 # opt freq=noraman hf/lanl2dz geom=connectivity\\Title Card Required\\
 0,1\C,2.1968665541,2.8963588123,-0.2492766668\C,1.9633461508,1.6806063
 535,0.2282477561\H,-0.9008658393,2.2614770926,-0.0057314299\H,-2.12549
 27599,-2.098646905,-0.2241781604\H,0.426560898,-2.8485329311,-0.055540
 3352\Sn,-0.0102355787,0.9158324712,0.6202590171\Sn,-0.5423530455,-1.55
 13606723,-0.6429755889\Br,3.4887507195,0.508641499,0.652606337\F,3.449
 441871,3.4139154034,-0.4684625552\H,1.43811857,3.6023891964,-0.5182404

 Normal termination of Gaussian 09 at Thu Oct 24 10:12:35 2024.

 ----------------------------------------------------------------
 #N Geom=AllCheck Guess=TCheck SCRF=Check GenChk RHF/LANL2DZ Freq
 ----------------------------------------------------------------

 Title Card Required
 -------------------
 Redundant internal coordinates taken from checkpoint file:
 6-lanl2dz.chk
 Charge =  0 Multiplicity = 1

                         Standard orientation:
 ---------------------------------------------------------------------
 Center     Atomic      Atomic             Coordinates (Angstroms)
 Number     Number       Type             X           Y           Z
 ---------------------------------------------------------------------
      1          6           0       -2.537695    1.180936    0.849234
      2          6           0       -1.678114    0.433721    0.168496
      3          1           0        0.206580    2.675295    0.306847
      4          1           0        3.880522    0.078856   -0.257750
      5          1           0        2.350953   -2.100464   -0.379108
      6         50           0        0.257205    1.128502   -0.468211
      7         50           0        2.384824   -0.538135    0.345123
      8         35           0       -2.193793   -1.398486   -0.338984
      9          9           0       -3.790375    0.767212    1.229338
     10          1           0       -2.348544    2.182117    1.178443
 ---------------------------------------------------------------------

 SCF Done:  E(RHF) =  -196.789456432     A.U. after    1 cycles

 The electronic state is 1-A.
 Alpha  occ. eigenvalues --  -26.31016 -11.37119 -11.30445  -1.62708  -1.10273
 Alpha  occ. eigenvalues --   -0.98527  -0.81229  -0.74298  -0.69023  -0.68177
 Alpha  occ. eigenvalues --   -0.64404  -0.61530  -0.54768  -0.47357  -0.46460
 Alpha  occ. eigenvalues --   -0.44585  -0.40670  -0.39837  -0.37529  -0.29017
 Alpha virt. eigenvalues --   -0.03756   0.07565   0.08021   0.12275   0.12826
 Alpha virt. eigenvalues --    0.15194   0.17599   0.20871   0.29217   0.29458
 Alpha virt. eigenvalues --    0.31886   0.32716   0.33744   0.33930   0.35704

 Mulliken atomic charges:
              1
     1  C    0.266515
     2  C   -0.679726
     3  H   -0.207010
     4  H   -0.190062
     5  H   -0.176662
     6  Sn   0.666468
     7  Sn   0.402621
     8  Br   0.016910
     9  F   -0.327754
    10  H    0.228700
 Sum of Mulliken atomic charges =   0.00000

 Dipole moment (field-independent basis, Debye):
    X=              3.0325    Y=              2.2090    Z=              0.1352  Tot=              3.7542
 Quadrupole moment (field-independent basis, Debye-Ang):
   XX=            -79.5561   YY=            -64.7896   ZZ=            -68.1722
   XY=             -5.2153   XZ=              6.0485   YZ=             -2.0970

  Exact polarizability: 165.043 -36.356 133.816  26.359 -10.523  76.863
 Approx polarizability: 123.274 -30.756 125.303  25.514 -12.372  70.727

                     1                      2                      3
                     A                      A                      A
 Frequencies --    25.8414                30.4219               120.9871
 Red. masses --    18.1319                21.1067                29.7835
 Frc consts  --     0.0071                 0.0115                 0.2569
 IR Inten    --     0.7458                 0.9629                 0.5702

                     4                      5                      6
                     A                      A                      A
 Frequencies --   129.9981               163.1503               179.1632
 Red. masses --    11.5534                 5.5530                 1.4113
 Frc consts  --     0.1150                 0.0871                 0.0267
 IR Inten    --     4.8354                 6.9989                 5.8539

                     7                      8                      9
                     A                      A                      A
 Frequencies --   197.6473               277.8828               316.2449
 Red. masses --     2.7683                 6.7854                 1.2749
 Frc consts  --     0.0637                 0.3087                 0.0751
 IR Inten    --    63.4144                55.6467                43.0166

                    10                     11                     12
                     A                      A                      A
 Frequencies --   369.9930               479.0614               521.1114
 Red. masses --     1.0491                 2.2783                 1.4505
 Frc consts  --     0.0846                 0.3081                 0.2321
 IR Inten    --    12.3191                15.1757                15.8776

                    13                     14                     15
                     A                      A                      A
 Frequencies --   534.8133               672.4963               836.9611
 Red. masses --     3.6422                 1.1189                 1.0217
 Frc consts  --     0.6138                 0.2982                 0.4217
 IR Inten    --    37.8139               162.8575               256.3118

                    16                     17                     18
                     A                      A                      A
 Frequencies --   887.3497               993.7585              1115.3504
 Red. masses --    10.6649                 1.4035                 9.9534
 Frc consts  --     4.9476                 0.8166                 7.2953
 IR Inten    --     4.5242                22.7908               119.2928

                    19                     20                     21
                     A                      A                      A
 Frequencies --  1429.6560              1797.5261              1888.8815
 Red. masses --     1.1127                 8.0425                 1.0164
 Frc consts  --     1.3399                15.3106                 2.1366
 IR Inten    --    33.7511               377.3662               228.2094

                    22                     23                     24
                     A                      A                      A
 Frequencies --  1906.4962              1919.2041              3446.2427
 Red. masses --     1.0162                 1.0167                 1.0959
 Frc consts  --     2.1762                 2.2065                 7.6685
 IR Inten    --   288.2873               283.2315                 2.4312

 - Thermochemistry -
 -------------------
 Temperature   298.150 Kelvin.  Pressure   1.00000 Atm.
 Atom     1 has atomic number  6 and mass  12.00000

 Molecular mass:   361.75164 amu.
 Principal axes and moments of inertia in atomic units:
                           1         2         3
     Eigenvalues --  1689.247605554.767306618.73515
           X            0.99980  -0.01407  -0.01450
           Y            0.01465   0.99908   0.04039
           Z            0.01392  -0.04060   0.99908
 This molecule is an asymmetric top.
 Rotational symmetry number  1.
 Warning -- assumption of classical behavior for rotation
           may cause significant error
 Rotational temperatures (Kelvin)      0.05127     0.01559     0.01309
 Rotational constants (GHZ):           1.06837     0.32490     0.27267
 Zero-point vibrational energy     121063.5 (Joules/Mol)
                                   28.93487 (Kcal/Mol)
 Warning -- explicit consideration of  13 degrees of freedom as
           vibrations may cause significant error
 Vibrational temperatures:     37.18    43.77   174.07   187.04   234.74
          (Kelvin)            257.78   284.37   399.81   455.01   532.34
                              689.26   749.76   769.48   967.57  1204.20
                             1276.70  1429.80  1604.74  2056.95  2586.24
                             2717.68  2743.02  2761.30  4958.37

 Zero-point correction=                           0.046111 (Hartree/Particle)
 Thermal correction to Energy=                    0.056018
 Thermal correction to Enthalpy=                  0.056962
 Thermal correction to Gibbs Free Energy=         0.005786
 Sum of electronic and zero-point Energies=           -196.743346
 Sum of electronic and thermal Energies=              -196.733439
 Sum of electronic and thermal Enthalpies=            -196.732494
 Sum of electronic and thermal Free Energies=         -196.783670

                     E (Thermal)             CV                S
                      KCal/Mol        Cal/Mol-Kelvin    Cal/Mol-Kelvin
 Total                   35.152             30.763            107.708
 Electronic               0.000              0.000              0.000
 Translational            0.889              2.981             43.551
 Rotational               0.889              2.981             32.496
 Vibrational             33.374             24.802             31.662
 Vibration     1          0.593              1.985              6.126
 Vibration     2          0.594              1.984              5.802
 Vibration     3          0.609              1.932              3.085
 Vibration     4          0.612              1.923              2.946
 Vibration     5          0.623              1.888              2.513
 Vibration     6          0.629              1.868              2.337
 Vibration     7          0.637              1.843              2.155
 Vibration     8          0.679              1.714              1.547
 Vibration     9          0.703              1.643              1.329
 Vibration    10          0.742              1.534              1.080
 Vibration    11          0.835              1.297              0.713
 Vibration    12          0.876              1.203              0.607
 Vibration    13          0.890              1.173              0.577

 1\1\GINC-MALLOS28\Freq\RHF\LANL2DZ\C2H4Br1F1Sn2\MARLIN\24-Oct-2024\0\\
 #N Geom=AllCheck Guess=TCheck SCRF=Check GenChk RHF/LANL2DZ Freq\\Titl
 e Card Required\\0,1\C,2.1968665541,2.8963588123,-0.2492766668\C,1.963
 3461508,1.6806063535,0.2282477561\H,-0.9008658393,2.2614770926,-0.0057
 314299\H,-2.1254927599,-2.098646905,-0.2241781604\H,0.426560898,-2.848
 5329311,-0.0555403352\Sn,-0.0102355787,0.9158324712,0.6202590171\Sn,-0
 .5423530455,-1.5513606723,-0.6429755889\Br,3.4887507195,0.508641499,0.
 652606337\F,3.449441871,3.4139154034,-0.4684625552\H,1.43811857,3.6023

 Normal termination of Gaussian 09 at Thu Oct 24 10:12:38 2024.
