 Gaussian 09, Revision A.01,
 Gaussian 09:  EM64L-G09RevA.01  8-May-2009

 --------------------------------------------
 # opt freq=noraman mp2/lanl2dz geom=allcheck
 --------------------------------------------

 Title Card Required
 -------------------
 Redundant internal coordinates taken from checkpoint file:
 6-mp2.chk
 Charge =  0 Multiplicity = 1

 SCF Done:  E(RHF) =  -196.789456432     A.U. after   15 cycles
 E2 =    -0.4041131352D+00 EUMP2 =    -0.19719356956763D+03
 SCF Done:  E(RHF) =  -196.785020162     A.U. after   13 cycles
 E2 =    -0.4131686971D+00 EUMP2 =    -0.19719818885867D+03
 SCF Done:  E(RHF) =  -196.784330508     A.U. after   12 cycles
 E2 =    -0.4141355720D+00 EUMP2 =    -0.19719846608039D+03
 SCF Done:  E(RHF) =  -196.784025551     A.U. after   12 cycles
 E2 =    -0.4144980527D+00 EUMP2 =    -0.19719852360388D+03
 SCF Done:  E(RHF) =  -196.784131830     A.U. after   12 cycles
 E2 =    -0.4144025936D+00 EUMP2 =    -0.19719853442340D+03
 SCF Done:  E(RHF) =  -196.784212036     A.U. after   11 cycles
 E2 =    -0.4143238224D+00 EUMP2 =    -0.19719853585858D+03
 SCF Done:  E(RHF) =  -196.784242427     A.U. after   11 cycles
 E2 =    -0.4142966620D+00 EUMP2 =    -0.19719853908922D+03
 SCF Done:  E(RHF) =  -196.784225248     A.U. after   10 cycles
 E2 =    -0.4143149206D+00 EUMP2 =    -0.19719854016827D+03
 SCF Done:  E(RHF) =  -196.784209323     A.U. after   10 cycles
 E2 =    -0.4143310693D+00 EUMP2 =    -0.19719854039196D+03
 Optimization completed.
    -- Stationary point found.
 Normal termination of Gaussian 09 at Thu Oct 24 12:20:27 2024.

 ---------------------------------------------------------------------
 #N Geom=AllCheck Guess=TCheck SCRF=Check GenChk RMP2(FC)/LANL2DZ Freq
 ---------------------------------------------------------------------

 Title Card Required
 -------------------
 Redundant internal coordinates taken from checkpoint file:
 6-mp2.chk
 Charge =  0 Multiplicity = 1

                         Standard orientation:
 ---------------------------------------------------------------------
 Center     Atomic      Atomic             Coordinates (Angstroms)
 Number     Number       Type             X           Y           Z
 ---------------------------------------------------------------------
      1          6           0       -2.577670    1.258543    0.726113
      2          6           0       -1.670514    0.435075    0.125095
      3          1           0        0.275823    2.707743    0.305958
      4          1           0        3.855211    0.095748   -0.261735
      5          1           0        2.225811   -2.097257   -0.418772
      6         50           0        0.300408    1.129116   -0.430447
      7         50           0        2.348810   -0.537748    0.329099
      8         35           0       -2.165635   -1.442242   -0.296806
      9          9           0       -3.903256    0.860412    1.079390
     10          1           0       -2.402080    2.298438    1.008398
 ---------------------------------------------------------------------

 SCF Done:  E(RHF) =  -196.784209323     A.U. after    1 cycles
 E2 =    -0.4143310692D+00 EUMP2 =    -0.19719854039187D+03
 E2 =    -0.4143310692D+00 EUMP2 =    -0.19719854039187D+03

 The electronic state is 1-A.
 Alpha  occ. eigenvalues --  -26.30423 -11.38086 -11.31747  -1.59993  -1.09258
 Alpha  occ. eigenvalues --   -0.98340  -0.80164  -0.72643  -0.67879  -0.67307
 Alpha  occ. eigenvalues --   -0.63932  -0.61172  -0.54986  -0.47187  -0.46821
 Alpha  occ. eigenvalues --   -0.44776  -0.41065  -0.40199  -0.37672  -0.28904
 Alpha virt. eigenvalues --   -0.03669   0.07543   0.08254   0.11138   0.11735
 Alpha virt. eigenvalues --    0.14881   0.17366   0.20383   0.27395   0.29050
 Alpha virt. eigenvalues --    0.31386   0.32205   0.33368   0.33833   0.35916

 Mulliken atomic charges:
              1
     1  C    0.261182
     2  C   -0.658192
     3  H   -0.198243
     4  H   -0.185076
     5  H   -0.171142
     6  Sn   0.662131
     7  Sn   0.386635
     8  Br   0.027681
     9  F   -0.354236
    10  H    0.229259
 Sum of Mulliken atomic charges =   0.00000

 Dipole moment (field-independent basis, Debye):
    X=              3.2886    Y=              2.1974    Z=             -0.0062  Tot=              3.9552
 Quadrupole moment (field-independent basis, Debye-Ang):
   XX=            -81.3673   YY=            -63.9888   ZZ=            -68.8283
   XY=             -4.7534   XZ=              5.8828   YZ=             -2.0663

  Exact polarizability: 162.511 -30.284 130.452  17.763  -7.307  66.124
 Approx polarizability: 126.995 -32.979 131.558  25.991 -14.189  67.655

                     1                      2                      3
                     A                      A                      A
 Frequencies --    25.6992                34.3282               125.7273
 Red. masses --    20.3660                20.0672                12.5055
 Frc consts  --     0.0079                 0.0139                 0.1165
 IR Inten    --     0.1476                 0.1992                 0.7789

                     4                      5                      6
                     A                      A                      A
 Frequencies --   137.9594               165.0242               174.9498
 Red. masses --    14.7895                 2.9662                 3.3248
 Frc consts  --     0.1658                 0.0476                 0.0600
 IR Inten    --     2.7818                 4.2990                 3.6672

                     7                      8                      9
                     A                      A                      A
 Frequencies --   206.2873               267.3573               339.6454
 Red. masses --     2.0313                11.6485                 1.0580
 Frc consts  --     0.0509                 0.4906                 0.0719
 IR Inten    --     9.4208                24.5735                14.6699

                    10                     11                     12
                     A                      A                      A
 Frequencies --   390.3872               429.3031               481.6059
 Red. masses --     1.0570                 3.4470                 1.3079
 Frc consts  --     0.0949                 0.3743                 0.1787
 IR Inten    --    13.9723                19.9695                10.0122

                    13                     14                     15
                     A                      A                      A
 Frequencies --   503.6969               618.4341               775.8835
 Red. masses --     3.1198                 1.1160                 1.0237
 Frc consts  --     0.4664                 0.2515                 0.3631
 IR Inten    --    21.6490               117.1564               217.4505

                    16                     17                     18
                     A                      A                      A
 Frequencies --   796.0819               816.1658               973.8115
 Red. masses --     1.3463                10.9926                 9.3894
 Frc consts  --     0.5027                 4.3143                 5.2461
 IR Inten    --    26.2586                 1.3733                82.9151

                    19                     20                     21
                     A                      A                      A
 Frequencies --  1308.2704              1572.2685              1827.0426
 Red. masses --     1.1197                 8.0177                 1.0162
 Frc consts  --     1.1291                11.6776                 1.9986
 IR Inten    --    16.9313               230.1657               155.4375

                    22                     23                     24
                     A                      A                      A
 Frequencies --  1842.0108              1856.8232              3235.6034
 Red. masses --     1.0145                 1.0175                 1.0958
 Frc consts  --     2.0282                 2.0669                 6.7588
 IR Inten    --   234.2072               193.0966                 3.1428

 - Thermochemistry -
 -------------------
 Temperature   298.150 Kelvin.  Pressure   1.00000 Atm.
 Atom     1 has atomic number  6 and mass  12.00000

 Molecular mass:   361.75164 amu.
 Principal axes and moments of inertia in atomic units:
                           1         2         3
     Eigenvalues --  1685.713725463.849026643.00954
           X            0.99979  -0.01569  -0.01304
           Y            0.01613   0.99928   0.03441
           Z            0.01249  -0.03461   0.99932
 This molecule is an asymmetric top.
 Rotational symmetry number  1.
 Warning -- assumption of classical behavior for rotation
           may cause significant error
 Rotational temperatures (Kelvin)      0.05138     0.01585     0.01304
 Rotational constants (GHZ):           1.07061     0.33031     0.27168
 Zero-point vibrational energy     113073.2 (Joules/Mol)
                                   27.02515 (Kcal/Mol)
 Warning -- explicit consideration of  14 degrees of freedom as
           vibrations may cause significant error
 Vibrational temperatures:     36.98    49.39   180.89   198.49   237.43
          (Kelvin)            251.71   296.80   384.67   488.67   561.68
                              617.67   692.92   724.71   889.79  1116.32
                             1145.38  1174.28  1401.10  1882.31  2262.14
                             2628.70  2650.24  2671.55  4655.31

 Zero-point correction=                           0.043067 (Hartree/Particle)
 Thermal correction to Energy=                    0.053119
 Thermal correction to Enthalpy=                  0.054063
 Thermal correction to Gibbs Free Energy=         0.002862
 Sum of electronic and zero-point Energies=           -197.155473
 Sum of electronic and thermal Energies=              -197.145421
 Sum of electronic and thermal Enthalpies=            -197.144477
 Sum of electronic and thermal Free Energies=         -197.195679

                     E (Thermal)             CV                S
                      KCal/Mol        Cal/Mol-Kelvin    Cal/Mol-Kelvin
 Total                   33.333             31.760            107.763
 Electronic               0.000              0.000              0.000
 Translational            0.889              2.981             43.551
 Rotational               0.889              2.981             32.481
 Vibrational             31.555             25.799             31.731
 Vibration     1          0.593              1.985              6.136
 Vibration     2          0.594              1.983              5.562
 Vibration     3          0.611              1.927              3.010
 Vibration     4          0.614              1.915              2.832
 Vibration     5          0.623              1.885              2.491
 Vibration     6          0.627              1.873              2.382
 Vibration     7          0.641              1.831              2.076
 Vibration     8          0.672              1.733              1.613
 Vibration     9          0.720              1.596              1.214
 Vibration    10          0.758              1.491              0.999
 Vibration    11          0.791              1.406              0.861
 Vibration    12          0.838              1.291              0.706
 Vibration    13          0.859              1.242              0.649
 Vibration    14          0.978              0.993              0.419

 Optimization completed.
    -- Stationary point found.
 Normal termination of Gaussian 09 at Thu Oct 24 12:20:41 2024.
