 Gaussian 09, Revision A.01,
 Gaussian 09:  EM64L-G09RevA.01  8-May-2009

 ----------------------------------------
 # opt freq=noraman mp2/sdd geom=allcheck
 ----------------------------------------

 Title Card Required
 -------------------
 Redundant internal coordinates taken from checkpoint file:
 6-sddmp2.chk
 Charge =  0 Multiplicity = 1

 SCF Done:  E(RHF) =  -197.004740872     A.U. after   15 cycles
 E2 =    -0.4030854912D+00 EUMP2 =    -0.19740782636323D+03
 SCF Done:  E(RHF) =  -197.000254094     A.U. after   13 cycles
 E2 =    -0.4121309787D+00 EUMP2 =    -0.19741238507272D+03
 SCF Done:  E(RHF) =  -196.999692502     A.U. after   12 cycles
 E2 =    -0.4129331582D+00 EUMP2 =    -0.19741262566004D+03
 SCF Done:  E(RHF) =  -196.999408567     A.U. after   12 cycles
 E2 =    -0.4132666234D+00 EUMP2 =    -0.19741267519046D+03
 SCF Done:  E(RHF) =  -196.999397452     A.U. after   12 cycles
 E2 =    -0.4132729209D+00 EUMP2 =    -0.19741267037245D+03
 SCF Done:  E(RHF) =  -196.999525437     A.U. after   11 cycles
 E2 =    -0.4131630236D+00 EUMP2 =    -0.19741268846053D+03
 SCF Done:  E(RHF) =  -196.999582528     A.U. after   10 cycles
 E2 =    -0.4131081459D+00 EUMP2 =    -0.19741269067362D+03
 SCF Done:  E(RHF) =  -196.999587737     A.U. after   10 cycles
 E2 =    -0.4131038823D+00 EUMP2 =    -0.19741269161954D+03
 SCF Done:  E(RHF) =  -196.999567181     A.U. after   10 cycles
 E2 =    -0.4131246033D+00 EUMP2 =    -0.19741269178391D+03
 Optimization completed.
    -- Stationary point found.

 1\1\GINC-MALLOS28\FOpt\RMP2-FC\SDD\C2H4Br1F1Sn2\MARLIN\25-Oct-2024\0\\
 # opt freq=noraman mp2/sdd geom=allcheck\\Title Card Required\\0,1\C,2
 .208001593,2.9153143181,-0.2188932755\C,1.9690998212,1.6395195183,0.20
 21224362\H,-0.9747426526,2.2455811268,-0.0804223674\H,-2.1530887758,-2
 .1009186465,-0.1966609553\H,0.4942053455,-2.8011438605,0.0113796409\Sn
 ,-0.0636932768,0.8939945907,0.551299917\Sn,-0.5494244046,-1.5557545084
 ,-0.6091754599\Br,3.4949551747,0.4285092906,0.5511960847\F,3.514768257
 9,3.455473042,-0.424754528\H,1.4440564576,3.660105449,-0.4493836028\\V

 Normal termination of Gaussian 09 at Fri Oct 25 10:52:39 2024.

 -----------------------------------------------------------------
 #N Geom=AllCheck Guess=TCheck SCRF=Check GenChk RMP2(FC)/SDD Freq
 -----------------------------------------------------------------

 Title Card Required
 -------------------
 Redundant internal coordinates taken from checkpoint file:
 6-sddmp2.chk
 Charge =  0 Multiplicity = 1

                         Standard orientation:
 ---------------------------------------------------------------------
 Center     Atomic      Atomic             Coordinates (Angstroms)
 Number     Number       Type             X           Y           Z
 ---------------------------------------------------------------------
      1          6           0       -2.589008    1.243140    0.745504
      2          6           0       -1.679435    0.433063    0.130335
      3          1           0        0.287504    2.713256    0.342990
      4          1           0        3.875775    0.052776   -0.240303
      5          1           0        2.207778   -2.122349   -0.408767
      6         50           0        0.317258    1.146024   -0.430811
      7         50           0        2.344918   -0.554395    0.331476
      8         35           0       -2.178374   -1.430445   -0.311286
      9          9           0       -3.912192    0.833764    1.096766
     10          1           0       -2.416355    2.279375    1.041915
 ---------------------------------------------------------------------

 SCF Done:  E(RHF) =  -196.999567181     A.U. after    1 cycles
 E2 =    -0.4131246034D+00 EUMP2 =    -0.19741269178401D+03
 E2 =    -0.4131246034D+00 EUMP2 =    -0.19741269178401D+03

 The electronic state is 1-A.
 Alpha  occ. eigenvalues --  -26.30298 -11.37805 -11.32272  -1.59753  -1.10222
 Alpha  occ. eigenvalues --   -1.00792  -0.80188  -0.72537  -0.68350  -0.67103
 Alpha  occ. eigenvalues --   -0.64035  -0.61339  -0.55012  -0.47087  -0.46723
 Alpha  occ. eigenvalues --   -0.44679  -0.40973  -0.40135  -0.37599  -0.28806
 Alpha virt. eigenvalues --   -0.03523   0.07718   0.08729   0.08971   0.11206
 Alpha virt. eigenvalues --    0.12367   0.12687   0.13683   0.15134   0.19122
 Alpha virt. eigenvalues --    0.21924   0.28371   0.31353   0.38476   0.43462

 Mulliken atomic charges:
              1
     1  C    0.229812
     2  C   -0.643786
     3  H   -0.187569
     4  H   -0.176894
     5  H   -0.161306
     6  Sn   0.611389
     7  Sn   0.382892
     8  Br   0.070398
     9  F   -0.355394
    10  H    0.230459
 Sum of Mulliken atomic charges =   0.00000

 Dipole moment (field-independent basis, Debye):
    X=              3.6294    Y=              2.1600    Z=             -0.0173  Tot=              4.2235
 Quadrupole moment (field-independent basis, Debye-Ang):
   XX=            -81.0643   YY=            -63.4065   ZZ=            -68.6605
   XY=             -4.7932   XZ=              5.7591   YZ=             -1.8801

  Exact polarizability: 160.415 -27.719 130.712  18.126  -6.373  67.827
 Approx polarizability: 126.988 -32.961 132.865  26.339 -14.282  69.359

                     1                      2                      3
                     A                      A                      A
 Frequencies --    25.0018                34.4194               124.5417
 Red. masses --    19.9340                20.2257                11.6789
 Frc consts  --     0.0073                 0.0141                 0.1067
 IR Inten    --     0.1424                 0.1768                 0.7491

                     4                      5                      6
                     A                      A                      A
 Frequencies --   138.2286               163.3045               172.9497
 Red. masses --    15.5523                 3.0554                 3.5071
 Frc consts  --     0.1751                 0.0480                 0.0618
 IR Inten    --     2.9500                 3.9552                 3.4942

                     7                      8                      9
                     A                      A                      A
 Frequencies --   205.6344               264.7374               340.4507
 Red. masses --     1.9577                11.6951                 1.0545
 Frc consts  --     0.0488                 0.4829                 0.0720
 IR Inten    --     9.5935                26.1484                16.3110

                    10                     11                     12
                     A                      A                      A
 Frequencies --   388.3375               425.4133               481.8049
 Red. masses --     1.0555                 3.6727                 1.2641
 Frc consts  --     0.0938                 0.3916                 0.1729
 IR Inten    --    12.8325                18.9843                 9.0029

                    13                     14                     15
                     A                      A                      A
 Frequencies --   506.2668               609.7065               775.3099
 Red. masses --     3.1611                 1.1290                 1.0246
 Frc consts  --     0.4774                 0.2473                 0.3629
 IR Inten    --    24.3007               113.0660               211.3459

                    16                     17                     18
                     A                      A                      A
 Frequencies --   798.4241               812.0246               972.6991
 Red. masses --     1.3370                10.7351                 9.3670
 Frc consts  --     0.5022                 4.1706                 5.2216
 IR Inten    --    28.7328                 2.2445                78.9887

                    19                     20                     21
                     A                      A                      A
 Frequencies --  1307.6558              1571.4290              1817.1852
 Red. masses --     1.1201                 8.0467                 1.0162
 Frc consts  --     1.1285                11.7074                 1.9772
 IR Inten    --    18.2163               225.6824               198.8395

                    22                     23                     24
                     A                      A                      A
 Frequencies --  1836.0832              1849.3225              3236.9671
 Red. masses --     1.0146                 1.0174                 1.0956
 Frc consts  --     2.0153                 2.0500                 6.7634
 IR Inten    --   300.0368               249.0294                 2.7253

 - Thermochemistry -
 -------------------
 Temperature   298.150 Kelvin.  Pressure   1.00000 Atm.
 Atom     1 has atomic number  6 and mass  12.00000

 Molecular mass:   361.75164 amu.
 Principal axes and moments of inertia in atomic units:
                           1         2         3
     Eigenvalues --  1702.760575492.468546674.09381
           X            0.99979  -0.01556  -0.01313
           Y            0.01602   0.99925   0.03519
           Z            0.01258  -0.03539   0.99929
 This molecule is an asymmetric top.
 Rotational symmetry number  1.
 Warning -- assumption of classical behavior for rotation
           may cause significant error
 Rotational temperatures (Kelvin)      0.05087     0.01577     0.01298
 Rotational constants (GHZ):           1.05989     0.32858     0.27041
 Zero-point vibrational energy     112795.3 (Joules/Mol)
                                   26.95872 (Kcal/Mol)
 Warning -- explicit consideration of  14 degrees of freedom as
           vibrations may cause significant error
 Vibrational temperatures:     35.97    49.52   179.19   198.88   234.96
          (Kelvin)            248.84   295.86   380.90   489.83   558.73
                              612.07   693.21   728.40   877.23  1115.50
                             1148.75  1168.32  1399.50  1881.42  2260.93
                             2614.52  2641.71  2660.76  4657.27

 Zero-point correction=                           0.042961 (Hartree/Particle)
 Thermal correction to Energy=                    0.053035
 Thermal correction to Enthalpy=                  0.053979
 Thermal correction to Gibbs Free Energy=         0.002695
 Sum of electronic and zero-point Energies=           -197.369730
 Sum of electronic and thermal Energies=              -197.359657
 Sum of electronic and thermal Enthalpies=            -197.358712
 Sum of electronic and thermal Free Energies=         -197.409997

                     E (Thermal)             CV                S
                      KCal/Mol        Cal/Mol-Kelvin    Cal/Mol-Kelvin
 Total                   33.280             31.802            107.938
 Electronic               0.000              0.000              0.000
 Translational            0.889              2.981             43.551
 Rotational               0.889              2.981             32.501
 Vibrational             31.503             25.841             31.886
 Vibration     1          0.593              1.985              6.191
 Vibration     2          0.594              1.983              5.557
 Vibration     3          0.610              1.928              3.029
 Vibration     4          0.614              1.915              2.828
 Vibration     5          0.623              1.887              2.511
 Vibration     6          0.626              1.876              2.403
 Vibration     7          0.640              1.832              2.082
 Vibration     8          0.671              1.738              1.630
 Vibration     9          0.720              1.595              1.210
 Vibration    10          0.757              1.495              1.007
 Vibration    11          0.787              1.415              0.874
 Vibration    12          0.838              1.290              0.705
 Vibration    13          0.861              1.236              0.643
 Vibration    14          0.969              1.011              0.433

 Optimization completed.
    -- Stationary point found.

 1\1\GINC-MALLOS28\Freq\RMP2-FC\SDD\C2H4Br1F1Sn2\MARLIN\25-Oct-2024\0\\
 #N Geom=AllCheck Guess=TCheck SCRF=Check GenChk RMP2(FC)/SDD Freq\\Tit
 le Card Required\\0,1\C,2.208001593,2.9153143181,-0.2188932755\C,1.969
 0998212,1.6395195183,0.2021224362\H,-0.9747426526,2.2455811268,-0.0804
 223674\H,-2.1530887758,-2.1009186465,-0.1966609553\H,0.4942053455,-2.8
 011438605,0.0113796409\Sn,-0.0636932768,0.8939945907,0.551299917\Sn,-0
 .5494244046,-1.5557545084,-0.6091754599\Br,3.4949551747,0.4285092906,0
 .5511960847\F,3.5147682579,3.455473042,-0.424754528\H,1.4440564576,3.6

 Normal termination of Gaussian 09 at Fri Oct 25 10:52:58 2024.
