 Gaussian 09, Revision A.01,
 Gaussian 09:  EM64L-G09RevA.01  8-May-2009

 ---------------------------------------
 # opt freq=noraman hf/sdd geom=allcheck
 ---------------------------------------

 Title Card Required
 -------------------
 Redundant internal coordinates taken from checkpoint file:
 6-sdd.chk
 Charge =  0 Multiplicity = 1

 SCF Done:  E(RHF) =  -197.004506502     A.U. after   15 cycles
 SCF Done:  E(RHF) =  -197.004716797     A.U. after   12 cycles
 SCF Done:  E(RHF) =  -197.004734697     A.U. after   10 cycles
 SCF Done:  E(RHF) =  -197.004736766     A.U. after   10 cycles
 SCF Done:  E(RHF) =  -197.004738735     A.U. after   11 cycles
 SCF Done:  E(RHF) =  -197.004739789     A.U. after   10 cycles
 SCF Done:  E(RHF) =  -197.004740365     A.U. after   10 cycles
 SCF Done:  E(RHF) =  -197.004740704     A.U. after   10 cycles
 SCF Done:  E(RHF) =  -197.004740872     A.U. after   10 cycles
 Optimization completed.
    -- Stationary point found.
 Normal termination of Gaussian 09 at Thu Oct 24 12:30:16 2024.

 ------------------------------------------------------------
 #N Geom=AllCheck Guess=TCheck SCRF=Check GenChk RHF/SDD Freq
 ------------------------------------------------------------

 Title Card Required
 -------------------
 Redundant internal coordinates taken from checkpoint file:
 6-sdd.chk
 Charge =  0 Multiplicity = 1

                         Standard orientation:
 ---------------------------------------------------------------------
 Center     Atomic      Atomic             Coordinates (Angstroms)
 Number     Number       Type             X           Y           Z
 ---------------------------------------------------------------------
      1          6           0       -2.540306    1.168229    0.861295
      2          6           0       -1.683383    0.425563    0.172296
      3          1           0        0.223424    2.677552    0.335927
      4          1           0        3.896943    0.039527   -0.232125
      5          1           0        2.327711   -2.123084   -0.365341
      6         50           0        0.272972    1.140517   -0.466547
      7         50           0        2.376600   -0.550995    0.345616
      8         35           0       -2.202605   -1.387747   -0.349854
      9          9           0       -3.793891    0.752541    1.238994
     10          1           0       -2.348380    2.165447    1.200459
 ---------------------------------------------------------------------

 SCF Done:  E(RHF) =  -197.004740872     A.U. after    1 cycles

 The electronic state is 1-A.
 Alpha  occ. eigenvalues --  -26.30901 -11.36890 -11.30988  -1.62463  -1.11189
 Alpha  occ. eigenvalues --   -1.01207  -0.81302  -0.74122  -0.68827  -0.68707
 Alpha  occ. eigenvalues --   -0.64641  -0.61709  -0.54912  -0.47361  -0.46496
 Alpha  occ. eigenvalues --   -0.44522  -0.40586  -0.39821  -0.37503  -0.28839
 Alpha virt. eigenvalues --   -0.03532   0.07916   0.08724   0.09256   0.11312
 Alpha virt. eigenvalues --    0.12677   0.13248   0.14504   0.15567   0.19372
 Alpha virt. eigenvalues --    0.22500   0.30014   0.31966   0.39211   0.43307

 Mulliken atomic charges:
              1
     1  C    0.233121
     2  C   -0.658101
     3  H   -0.195577
     4  H   -0.181180
     5  H   -0.166422
     6  Sn   0.610776
     7  Sn   0.395471
     8  Br   0.061860
     9  F   -0.329750
    10  H    0.229802
 Sum of Mulliken atomic charges =   0.00000

 Dipole moment (field-independent basis, Debye):
    X=              3.3277    Y=              2.1450    Z=              0.1179  Tot=              3.9609
 Quadrupole moment (field-independent basis, Debye-Ang):
   XX=            -79.1982   YY=            -64.1603   ZZ=            -68.0442
   XY=             -5.1742   XZ=              5.8809   YZ=             -1.8575

  Exact polarizability: 162.389 -34.111 133.015  26.209  -9.647  77.683
 Approx polarizability: 123.537 -31.013 126.291  26.231 -12.704  72.091

                     1                      2                      3
                     A                      A                      A
 Frequencies --    25.7066                31.8003               120.5651
 Red. masses --    18.2910                20.9595                29.2565
 Frc consts  --     0.0071                 0.0125                 0.2506
 IR Inten    --     0.5825                 0.8560                 0.6416

                     4                      5                      6
                     A                      A                      A
 Frequencies --   129.8394               163.3857               180.4692
 Red. masses --    11.5020                 6.0848                 1.4266
 Frc consts  --     0.1142                 0.0957                 0.0274
 IR Inten    --     4.7226                 6.6248                 5.3393

                     7                      8                      9
                     A                      A                      A
 Frequencies --   200.9990               277.2820               320.4997
 Red. masses --     2.7227                 7.5667                 1.2264
 Frc consts  --     0.0648                 0.3428                 0.0742
 IR Inten    --    60.5800                56.6380                50.4475

                    10                     11                     12
                     A                      A                      A
 Frequencies --   370.8023               479.3883               521.4141
 Red. masses --     1.0486                 2.4250                 1.3217
 Frc consts  --     0.0849                 0.3284                 0.2117
 IR Inten    --    12.0990                14.9389                11.4190

                    13                     14                     15
                     A                      A                      A
 Frequencies --   542.1456               665.2799               834.0027
 Red. masses --     4.1150                 1.1323                 1.0220
 Frc consts  --     0.7126                 0.2953                 0.4188
 IR Inten    --    42.6021               154.0313               251.1538

                    16                     17                     18
                     A                      A                      A
 Frequencies --   887.6695               986.9294              1113.3486
 Red. masses --    10.6898                 1.3978                 9.9521
 Frc consts  --     4.9627                 0.8022                 7.2682
 IR Inten    --     5.8679                25.4137               118.8969

                    19                     20                     21
                     A                      A                      A
 Frequencies --  1427.7330              1797.6762              1883.7736
 Red. masses --     1.1121                 8.1015                 1.0163
 Frc consts  --     1.3356                15.4254                 2.1250
 IR Inten    --    33.3751               360.9095               271.3937

                    22                     23                     24
                     A                      A                      A
 Frequencies --  1904.6694              1916.3498              3445.7322
 Red. masses --     1.0165                 1.0166                 1.0959
 Frc consts  --     2.1727                 2.1996                 7.6663
 IR Inten    --   351.8848               346.7311                 2.4762

 - Thermochemistry -
 -------------------
 Temperature   298.150 Kelvin.  Pressure   1.00000 Atm.
 Atom     1 has atomic number  6 and mass  12.00000

 Molecular mass:   361.75164 amu.
 Principal axes and moments of inertia in atomic units:
                           1         2         3
     Eigenvalues --  1699.546365560.196236625.90782
           X            0.99980  -0.01401  -0.01449
           Y            0.01460   0.99906   0.04084
           Z            0.01390  -0.04105   0.99906
 This molecule is an asymmetric top.
 Rotational symmetry number  1.
 Warning -- assumption of classical behavior for rotation
           may cause significant error
 Rotational temperatures (Kelvin)      0.05096     0.01558     0.01307
 Rotational constants (GHZ):           1.06190     0.32458     0.27238
 Zero-point vibrational energy     120987.1 (Joules/Mol)
                                   28.91661 (Kcal/Mol)
 Warning -- explicit consideration of  13 degrees of freedom as
           vibrations may cause significant error
 Vibrational temperatures:     36.99    45.75   173.47   186.81   235.08
          (Kelvin)            259.65   289.19   398.95   461.13   533.50
                              689.73   750.20   780.03   957.19  1199.94
                             1277.16  1419.97  1601.86  2054.19  2586.45
                             2710.33  2740.39  2757.20  4957.63

 Zero-point correction=                           0.046082 (Hartree/Particle)
 Thermal correction to Energy=                    0.055974
 Thermal correction to Enthalpy=                  0.056918
 Thermal correction to Gibbs Free Energy=         0.005805
 Sum of electronic and zero-point Energies=           -196.958659
 Sum of electronic and thermal Energies=              -196.948767
 Sum of electronic and thermal Enthalpies=            -196.947823
 Sum of electronic and thermal Free Energies=         -196.998936

                     E (Thermal)             CV                S
                      KCal/Mol        Cal/Mol-Kelvin    Cal/Mol-Kelvin
 Total                   35.124             30.759            107.577
 Electronic               0.000              0.000              0.000
 Translational            0.889              2.981             43.551
 Rotational               0.889              2.981             32.504
 Vibrational             33.347             24.798             31.522
 Vibration     1          0.593              1.985              6.136
 Vibration     2          0.594              1.983              5.714
 Vibration     3          0.609              1.932              3.091
 Vibration     4          0.612              1.923              2.948
 Vibration     5          0.623              1.887              2.510
 Vibration     6          0.629              1.866              2.324
 Vibration     7          0.638              1.838              2.124
 Vibration     8          0.678              1.715              1.550
 Vibration     9          0.706              1.634              1.308
 Vibration    10          0.743              1.532              1.076
 Vibration    11          0.836              1.296              0.712
 Vibration    12          0.876              1.203              0.607
 Vibration    13          0.897              1.157              0.561

 Optimization completed.
    -- Stationary point found.
 Normal termination of Gaussian 09 at Thu Oct 24 12:30:20 2024.
